Jobname.Temp
SP        R                             cc-pVDZ             
Number of atoms                            I                2
Charge                                     I                0
Multiplicity                               I                1
Number of electrons                        I                2
Number of alpha electrons                  I                1
Number of beta electrons                   I                1
Atomic numbers                             I   N=           2
           1           1
Current cartesian coordinates              R   N=           6
  0.00000000E+00  0.00000000E+00 -2.83458919E+00  0.00000000E+00  0.00000000E+00
  2.83458919E+00
Nuclear charges                            R   N=           2
  1.00000000E+00  1.00000000E+00
Number of basis functions                  I               10
Number of contracted shells                I                6
Number of primitive shells                 I               10
Highest angular momentum                   I                1
Largest degree of contraction              I                3
Shell types                                I   N=           6
           0           0           1           0           0           1
Number of primitives per shell             I   N=           6
           3           1           1           3           1           1
Shell to atom map                          I   N=           6
           1           1           1           2           2           2
Primitive exponents                        R   N=          10
  1.30100000E+01  1.96200000E+00  4.44600000E-01  1.22000000E-01  7.27000000E-01
  1.30100000E+01  1.96200000E+00  4.44600000E-01  1.22000000E-01  7.27000000E-01
Contraction coefficients                   R   N=          10
  3.34987264E-02  2.34800801E-01  8.13682958E-01  1.00000000E+00  1.00000000E+00
  3.34987264E-02  2.34800801E-01  8.13682958E-01  1.00000000E+00  1.00000000E+00
Coordinates of each shell                  R   N=          18
  0.00000000E+00  0.00000000E+00 -2.83458919E+00  0.00000000E+00  0.00000000E+00
 -2.83458919E+00  0.00000000E+00  0.00000000E+00 -2.83458919E+00  0.00000000E+00
  0.00000000E+00  2.83458919E+00  0.00000000E+00  0.00000000E+00  2.83458919E+00
  0.00000000E+00  0.00000000E+00  2.83458919E+00
Overlap Matrix                             R   N=          55
  1.00000000E+00  6.84860251E-01  1.00000000E+00  0.00000000E+00  0.00000000E+00
  1.00000000E+00  0.00000000E+00  0.00000000E+00  0.00000000E+00  1.00000000E+00
 -1.48867826E-16  0.00000000E+00  0.00000000E+00  0.00000000E+00  1.00000000E+00
  5.24732218E-04  2.99064994E-02  0.00000000E+00  0.00000000E+00  4.02478235E-04
  1.00000000E+00  2.99064994E-02  1.40785955E-01  0.00000000E+00  0.00000000E+00
  2.84245571E-02  6.84860251E-01  1.00000000E+00  0.00000000E+00  0.00000000E+00
  8.43822497E-06  0.00000000E+00  0.00000000E+00  0.00000000E+00  0.00000000E+00
  1.00000000E+00  0.00000000E+00  0.00000000E+00  0.00000000E+00  8.43822497E-06
  0.00000000E+00  0.00000000E+00  0.00000000E+00  0.00000000E+00  1.00000000E+00
 -4.02478235E-04 -2.84245571E-02  0.00000000E+00  0.00000000E+00 -1.88724928E-04
  1.48867826E-16  0.00000000E+00  0.00000000E+00  0.00000000E+00  1.00000000E+00
Core Hamiltonian Matrix                    R   N=          55
 -5.84796961E-01 -5.69277220E-01 -5.50757393E-01  0.00000000E+00  0.00000000E+00
  7.35914054E-01  0.00000000E+00  0.00000000E+00  0.00000000E+00  7.35914054E-01
 -1.95747675E-02 -1.83621449E-02  0.00000000E+00  0.00000000E+00  7.30252098E-01
 -1.69924136E-03 -3.76258641E-02  0.00000000E+00  0.00000000E+00 -1.70527650E-03
 -5.84796961E-01 -3.76258641E-02 -1.02507215E-01  0.00000000E+00  0.00000000E+00
 -2.95446252E-02 -5.69277220E-01 -5.50757393E-01  0.00000000E+00  0.00000000E+00
 -6.20312781E-05  0.00000000E+00  0.00000000E+00  0.00000000E+00  0.00000000E+00
  7.35914054E-01  0.00000000E+00  0.00000000E+00  0.00000000E+00 -6.20312781E-05
  0.00000000E+00  0.00000000E+00  0.00000000E+00  0.00000000E+00  7.35914054E-01
  1.70527650E-03  2.95446252E-02  0.00000000E+00  0.00000000E+00  1.24921086E-03
  1.95747675E-02  1.83621449E-02  0.00000000E+00  0.00000000E+00  7.30252098E-01
Localized Alpha MO Coefficients (IBO)      R   N=          10
 -4.01353573E-01 -3.48739894E-01  1.26783999E-16 -1.05228236E-16 -5.66338992E-08
 -4.01353573E-01 -3.48739894E-01  3.86418270E-16 -5.82696367E-18  5.66338991E-08
Localized Beta  MO Coefficients (IBO)      R   N=          10
 -4.01353573E-01 -3.48739894E-01  1.26783999E-16 -1.05228236E-16 -5.66338992E-08
 -4.01353573E-01 -3.48739894E-01  3.86418270E-16 -5.82696367E-18  5.66338991E-08
Localized Alpha MO Coefficients (OSLO)     R   N=          10
 -4.01353573E-01 -3.48739894E-01  1.26783999E-16 -1.05228236E-16 -5.66338992E-08
 -4.01353573E-01 -3.48739894E-01  3.86418270E-16 -5.82696367E-18  5.66338991E-08
Localized Beta  MO Coefficients (OSLO)     R   N=          10
 -4.01353573E-01 -3.48739894E-01  1.26783999E-16 -1.05228236E-16 -5.66338992E-08
 -4.01353573E-01 -3.48739894E-01  3.86418270E-16 -5.82696367E-18  5.66338991E-08
Number of independent functions            I               10
Alpha MO coefficients                      R   N=         100
 -4.01353573E-01 -3.48739894E-01  1.26783999E-16 -1.05228236E-16 -5.66338992E-08
 -4.01353573E-01 -3.48739894E-01  3.86418270E-16 -5.82696367E-18  5.66338991E-08
 -4.30633850E-01 -3.60198042E-01  5.02380973E-17 -5.66093516E-17 -4.51170435E-04
  4.30633850E-01  3.60198042E-01 -2.91305011E-16  1.28852358E-16 -4.51170435E-04
  1.24635725E+00 -1.29893128E+00  1.28241761E-07  2.13707231E-07 -4.38867896E-03
 -4.89676791E-02  1.60581056E-01 -3.03954353E-02 -5.06521766E-02 -1.85347566E-02
  3.48154184E-02 -2.03552422E-02 -4.17144077E-06  1.08133297E-07  9.78734331E-03
  1.79173548E-01 -1.83163172E-01  9.88701010E-01 -2.56293942E-02  1.78522590E-03
  2.43611822E-03 -6.18622320E-03 -2.87947850E-08 -2.47194547E-08 -9.92611832E-01
 -7.10845424E-03  2.33891559E-02  6.82484630E-03  5.85892249E-03 -1.25247871E-01
 -3.39489023E-16  7.95027803E-16  9.99999872E-01  5.06741194E-04  6.10537327E-15
 -6.19759869E-17 -5.87314124E-17 -4.21911194E-06 -2.13799797E-09  2.62724884E-14
  4.32049463E-16 -8.93728723E-16  5.06741194E-04 -9.99999872E-01  5.66771094E-15
  5.13011601E-17 -7.32743885E-17 -2.13799823E-09  4.21911194E-06 -3.14476243E-14
  1.41769504E-02 -3.00213384E-02 -3.53505147E-09 -1.56641478E-08  1.24980372E-01
  2.61116769E-03 -2.38107002E-03  8.37872125E-04  3.71267175E-03 -9.92714178E-01
  6.53387350E-02 -8.47155284E-02 -1.95211145E-07 -4.15972137E-06  1.76649160E-03
 -1.92188908E-01  2.05302800E-01  4.62682959E-02  9.85923316E-01  2.69856029E-03
  2.94618064E-03 -1.10463769E-01 -5.87023901E-07  6.62878774E-07 -2.31587426E-02
 -1.21967550E+00  1.26724833E+00  1.39134451E-01 -1.57113321E-01 -5.51063674E-03
Alpha Orbital Energies                     R   N=          10
  1.14672683E+00  8.53273167E-01  2.59236417E-16  5.97184527E-17  6.91644758E-20
  2.75746413E-37 -1.21450969E-34 -6.06431367E-21 -3.04821970E-17 -1.03557755E-16
Total SCF Density                          R   N=          55
  3.42955818E-01  2.92859226E-01  2.50170264E-01 -1.73962649E-17 -1.51443042E-17
  1.81283269E-33  2.13795662E-17  1.82765408E-17 -1.14866703E-33  1.33721325E-33
  1.65807879E-04  1.38688674E-04  9.17781968E-22  9.69266147E-21  1.73687820E-07
  2.64844570E-02  2.81509026E-02 -1.91531994E-17  2.87990070E-18 -1.65755748E-04
  3.42955818E-01  2.81509026E-02  2.87584552E-02 -1.66138691E-17  2.80273804E-18
 -1.38643378E-04  2.92859226E-01  2.50170264E-01 -1.02443600E-17 -9.48056694E-18
  2.87695781E-33 -8.01280351E-34  1.86815463E-20 -4.59143057E-17 -3.93162257E-17
  6.27854878E-33 -1.54568956E-17 -1.29213636E-17 -1.09474233E-34 -9.01916288E-34
 -1.64312682E-20  1.59098496E-17  1.33149395E-17 -1.80212246E-33  1.55471961E-33
  1.65755748E-04  1.38643378E-04  9.22939362E-22  9.68923829E-21  1.73687812E-07
 -1.65807879E-04 -1.38688674E-04  1.86894707E-20 -1.64313321E-20  1.73687820E-07
Pure Switching                             I                1
Dipole_Data                                R   N=           3
  3.68597852E-16 -2.12970562E-16  2.61007184E-15
Quadrupole_Data                            R   N=           6
 -2.67791658E+00  2.72965831E-33 -2.67791658E+00  2.44766401E-16  5.03315425E-17
 -2.56106802E+00
Octapole_Data                              R   N=          10
  1.50654574E-16 -2.88974557E-17  5.02181912E-17 -8.66923671E-17  1.29372915E-16
  9.06726175E-34  1.29372915E-16  8.76470094E-16 -5.09190093E-16  6.04046322E-15
Hexadecapole_Data                          R   N=          15
 -3.21785075E+00  7.88564833E-34 -1.07261692E+00  7.88564833E-34 -3.21785075E+00
  9.96782180E-17  6.93027181E-18  3.32260727E-17  2.07908154E-17 -7.04120171E+00
  6.40457015E-33 -7.04120171E+00  6.51205827E-16  1.32114796E-16 -3.87361082E+01
