Jobname.Temp
SP        U                             cc-pVDZ             
Number of atoms                            I                2
Charge                                     I                0
Multiplicity                               I                3
Number of electrons                        I               16
Number of alpha electrons                  I                9
Number of beta electrons                   I                7
Atomic numbers                             I   N=           2
           8           8
Current cartesian coordinates              R   N=           6
  0.00000000E+00  0.00000000E+00 -1.14044972E+00  0.00000000E+00  0.00000000E+00
  1.14044972E+00
Nuclear charges                            R   N=           2
  8.00000000E+00  8.00000000E+00
Number of basis functions                  I               28
Number of contracted shells                I               12
Number of primitive shells                 I               40
Highest angular momentum                   I                2
Largest degree of contraction              I                7
Shell types                                I   N=          12
           0           0           0           1           1          -2
           0           0           0           1           1          -2
Number of primitives per shell             I   N=          12
           7           7           1           3           1           1
           7           7           1           3           1           1
Shell to atom map                          I   N=          12
           1           1           1           1           1           1
           2           2           2           2           2           2
Primitive exponents                        R   N=          40
  1.17200000E+04  1.75900000E+03  4.00800000E+02  1.13700000E+02  3.70300000E+01
  1.32700000E+01  5.02500000E+00  1.17200000E+04  1.75900000E+03  1.13700000E+02
  3.70300000E+01  1.32700000E+01  5.02500000E+00  1.01300000E+00  3.02300000E-01
  1.77000000E+01  3.85400000E+00  1.04600000E+00  2.75300000E-01  1.18500000E+00
  1.17200000E+04  1.75900000E+03  4.00800000E+02  1.13700000E+02  3.70300000E+01
  1.32700000E+01  5.02500000E+00  1.17200000E+04  1.75900000E+03  1.13700000E+02
  3.70300000E+01  1.32700000E+01  5.02500000E+00  1.01300000E+00  3.02300000E-01
  1.77000000E+01  3.85400000E+00  1.04600000E+00  2.75300000E-01  1.18500000E+00
Contraction coefficients                   R   N=          40
  7.11859989E-04  5.48520206E-03  2.79099247E-02  1.05133208E-01  2.84002488E-01
  4.51673950E-01  2.73208124E-01 -3.13436252E-07 -6.17665315E-05 -4.15726173E-03
 -1.41000865E-02 -1.26138482E-01 -1.09614593E-01  1.09868833E+00  1.00000000E+00
  6.26791663E-02  3.33536566E-01  7.41239642E-01  1.00000000E+00  1.00000000E+00
  7.11859989E-04  5.48520206E-03  2.79099247E-02  1.05133208E-01  2.84002488E-01
  4.51673950E-01  2.73208124E-01 -3.13436252E-07 -6.17665315E-05 -4.15726173E-03
 -1.41000865E-02 -1.26138482E-01 -1.09614593E-01  1.09868833E+00  1.00000000E+00
  6.26791663E-02  3.33536566E-01  7.41239642E-01  1.00000000E+00  1.00000000E+00
Coordinates of each shell                  R   N=          36
  0.00000000E+00  0.00000000E+00 -1.14044972E+00  0.00000000E+00  0.00000000E+00
 -1.14044972E+00  0.00000000E+00  0.00000000E+00 -1.14044972E+00  0.00000000E+00
  0.00000000E+00 -1.14044972E+00  0.00000000E+00  0.00000000E+00 -1.14044972E+00
  0.00000000E+00  0.00000000E+00 -1.14044972E+00  0.00000000E+00  0.00000000E+00
  1.14044972E+00  0.00000000E+00  0.00000000E+00  1.14044972E+00  0.00000000E+00
  0.00000000E+00  1.14044972E+00  0.00000000E+00  0.00000000E+00  1.14044972E+00
  0.00000000E+00  0.00000000E+00  1.14044972E+00  0.00000000E+00  0.00000000E+00
  1.14044972E+00
Overlap Matrix                             R   N=         406
  1.00000000E+00  2.14476014E-01  1.00000000E+00  1.83816867E-01  7.92109402E-01
  1.00000000E+00  0.00000000E+00  0.00000000E+00  0.00000000E+00  1.00000000E+00
  0.00000000E+00  0.00000000E+00  0.00000000E+00  0.00000000E+00  1.00000000E+00
  1.26372434E-16  3.35977035E-16 -1.52560333E-17  0.00000000E+00  0.00000000E+00
  1.00000000E+00  0.00000000E+00  0.00000000E+00  0.00000000E+00  5.01271483E-01
  0.00000000E+00  0.00000000E+00  1.00000000E+00  0.00000000E+00  0.00000000E+00
  0.00000000E+00  0.00000000E+00  5.01271483E-01  0.00000000E+00  0.00000000E+00
  1.00000000E+00 -3.46008462E-17  2.01991153E-16  0.00000000E+00  0.00000000E+00
  0.00000000E+00  5.01271483E-01  0.00000000E+00  0.00000000E+00  1.00000000E+00
  0.00000000E+00  0.00000000E+00  0.00000000E+00  0.00000000E+00  0.00000000E+00
 -5.35127304E-16  0.00000000E+00  0.00000000E+00  3.02116360E-16  1.00000000E+00
  0.00000000E+00  0.00000000E+00  0.00000000E+00 -4.63433840E-16  0.00000000E+00
  0.00000000E+00  2.61640442E-16  0.00000000E+00  0.00000000E+00  0.00000000E+00
  1.00000000E+00  0.00000000E+00  0.00000000E+00  0.00000000E+00  0.00000000E+00
 -4.63433840E-16  0.00000000E+00  0.00000000E+00  2.61640442E-16  0.00000000E+00
  0.00000000E+00  0.00000000E+00  1.00000000E+00  2.95546284E-18  3.53361838E-17
  4.56638999E-17  0.00000000E+00  0.00000000E+00  3.42755749E-35  0.00000000E+00
  0.00000000E+00  5.69926860E-33  2.47902802E-17  0.00000000E+00  0.00000000E+00
  1.00000000E+00  0.00000000E+00  0.00000000E+00  0.00000000E+00  0.00000000E+00
  0.00000000E+00  0.00000000E+00  0.00000000E+00  0.00000000E+00  0.00000000E+00
  0.00000000E+00  0.00000000E+00  0.00000000E+00  0.00000000E+00  1.00000000E+00
  1.58328112E-07  4.17194473E-03  4.04000563E-02  0.00000000E+00  0.00000000E+00
  1.02374473E-02  0.00000000E+00  0.00000000E+00  9.97669115E-02  2.20697300E-02
  0.00000000E+00  0.00000000E+00  1.57292736E-22  0.00000000E+00  1.00000000E+00
  4.17194473E-03  8.38303122E-02  2.40141411E-01  0.00000000E+00  0.00000000E+00
  1.33026715E-01  0.00000000E+00  0.00000000E+00  4.67262845E-01  1.85878476E-01
  0.00000000E+00  0.00000000E+00  1.40703316E-18  0.00000000E+00  2.14476014E-01
  1.00000000E+00  4.04000563E-02  2.40141411E-01  4.55500616E-01  0.00000000E+00
  0.00000000E+00  1.93848444E-01  0.00000000E+00  0.00000000E+00  5.91004299E-01
  1.21304994E-01  0.00000000E+00  0.00000000E+00  7.87324500E-18  0.00000000E+00
  1.83816867E-01  7.92109402E-01  1.00000000E+00  0.00000000E+00  0.00000000E+00
  0.00000000E+00  4.04046522E-02  0.00000000E+00  0.00000000E+00  1.57696754E-01
  0.00000000E+00  0.00000000E+00  0.00000000E+00  1.03073367E-01  0.00000000E+00
  0.00000000E+00  0.00000000E+00  0.00000000E+00  0.00000000E+00  0.00000000E+00
  1.00000000E+00  0.00000000E+00  0.00000000E+00  0.00000000E+00  0.00000000E+00
  4.04046522E-02  0.00000000E+00  0.00000000E+00  1.57696754E-01  0.00000000E+00
  0.00000000E+00  0.00000000E+00  1.03073367E-01  0.00000000E+00  0.00000000E+00
  0.00000000E+00  0.00000000E+00  0.00000000E+00  0.00000000E+00  1.00000000E+00
 -1.02374473E-02 -1.33026715E-01 -1.93848444E-01  0.00000000E+00  0.00000000E+00
 -1.92893807E-01  0.00000000E+00  0.00000000E+00 -2.06411149E-01 -2.41333834E-01
  0.00000000E+00  0.00000000E+00 -6.20943583E-19  0.00000000E+00 -1.26372434E-16
 -3.35977035E-16  1.52560333E-17  0.00000000E+00  0.00000000E+00  1.00000000E+00
  0.00000000E+00  0.00000000E+00  0.00000000E+00  1.57696754E-01  0.00000000E+00
  0.00000000E+00  4.88642358E-01  0.00000000E+00  0.00000000E+00  0.00000000E+00
  1.58482654E-01  0.00000000E+00  0.00000000E+00  0.00000000E+00  0.00000000E+00
  0.00000000E+00  0.00000000E+00  5.01271483E-01  0.00000000E+00  0.00000000E+00
  1.00000000E+00  0.00000000E+00  0.00000000E+00  0.00000000E+00  0.00000000E+00
  1.57696754E-01  0.00000000E+00  0.00000000E+00  4.88642358E-01  0.00000000E+00
  0.00000000E+00  0.00000000E+00  1.58482654E-01  0.00000000E+00  0.00000000E+00
  0.00000000E+00  0.00000000E+00  0.00000000E+00  0.00000000E+00  5.01271483E-01
  0.00000000E+00  0.00000000E+00  1.00000000E+00 -9.97669115E-02 -4.67262845E-01
 -5.91004299E-01  0.00000000E+00  0.00000000E+00 -2.06411149E-01  0.00000000E+00
  0.00000000E+00 -2.11215103E-01 -2.96893982E-02  0.00000000E+00  0.00000000E+00
 -9.74463594E-19  0.00000000E+00  3.46008462E-17 -2.01991153E-16  0.00000000E+00
  0.00000000E+00  0.00000000E+00  5.01271483E-01  0.00000000E+00  0.00000000E+00
  1.00000000E+00  2.20697300E-02  1.85878476E-01  1.21304994E-01  0.00000000E+00
  0.00000000E+00  2.41333834E-01  0.00000000E+00  0.00000000E+00  2.96893982E-02
  2.49810046E-01  0.00000000E+00  0.00000000E+00  2.00370345E-18  0.00000000E+00
  0.00000000E+00  0.00000000E+00  0.00000000E+00  0.00000000E+00  0.00000000E+00
  5.35127304E-16  0.00000000E+00  0.00000000E+00 -3.02116360E-16  1.00000000E+00
  0.00000000E+00  0.00000000E+00  0.00000000E+00 -1.03073367E-01  0.00000000E+00
  0.00000000E+00 -1.58482654E-01  0.00000000E+00  0.00000000E+00  0.00000000E+00
 -2.36789382E-01  0.00000000E+00  0.00000000E+00  0.00000000E+00  0.00000000E+00
  0.00000000E+00  0.00000000E+00  4.63433840E-16  0.00000000E+00  0.00000000E+00
 -2.61640442E-16  0.00000000E+00  0.00000000E+00  0.00000000E+00  1.00000000E+00
  0.00000000E+00  0.00000000E+00  0.00000000E+00  0.00000000E+00 -1.03073367E-01
  0.00000000E+00  0.00000000E+00 -1.58482654E-01  0.00000000E+00  0.00000000E+00
  0.00000000E+00 -2.36789382E-01  0.00000000E+00  0.00000000E+00  0.00000000E+00
  0.00000000E+00  0.00000000E+00  0.00000000E+00  4.63433840E-16  0.00000000E+00
  0.00000000E+00 -2.61640442E-16  0.00000000E+00  0.00000000E+00  0.00000000E+00
  1.00000000E+00 -3.21337399E-21  1.40703316E-18  7.87324500E-18  0.00000000E+00
  0.00000000E+00 -2.59940829E-18  0.00000000E+00  0.00000000E+00  9.74463594E-19
 -9.61157088E-19  0.00000000E+00  0.00000000E+00  4.58453012E-02  0.00000000E+00
  2.95546284E-18  3.53361838E-17  4.56638999E-17  0.00000000E+00  0.00000000E+00
 -3.42755749E-35  0.00000000E+00  0.00000000E+00 -5.69926860E-33  2.47902802E-17
  0.00000000E+00  0.00000000E+00  1.00000000E+00  0.00000000E+00  0.00000000E+00
  0.00000000E+00  0.00000000E+00  0.00000000E+00  0.00000000E+00  0.00000000E+00
  0.00000000E+00  0.00000000E+00  0.00000000E+00  0.00000000E+00  0.00000000E+00
  0.00000000E+00  4.58453012E-02  0.00000000E+00  0.00000000E+00  0.00000000E+00
  0.00000000E+00  0.00000000E+00  0.00000000E+00  0.00000000E+00  0.00000000E+00
  0.00000000E+00  0.00000000E+00  0.00000000E+00  0.00000000E+00  0.00000000E+00
  1.00000000E+00
Core Hamiltonian Matrix                    R   N=         406
 -3.54464181E+01 -7.12832059E+00 -1.21233284E+01 -6.28156824E+00 -9.54962669E+00
 -1.00304347E+01  0.00000000E+00  0.00000000E+00  0.00000000E+00 -1.08008065E+01
  0.00000000E+00  0.00000000E+00  0.00000000E+00  0.00000000E+00 -1.08008065E+01
 -1.15736926E-01 -7.56359090E-01 -7.50383337E-01  0.00000000E+00  0.00000000E+00
 -1.11447207E+01  0.00000000E+00  0.00000000E+00  0.00000000E+00 -4.89664735E+00
  0.00000000E+00  0.00000000E+00 -6.69078552E+00  0.00000000E+00  0.00000000E+00
  0.00000000E+00  0.00000000E+00 -4.89664735E+00  0.00000000E+00  0.00000000E+00
 -6.69078552E+00 -1.67884417E-02 -5.02720327E-01 -1.23959640E+00  0.00000000E+00
  0.00000000E+00 -5.24261697E+00  0.00000000E+00  0.00000000E+00 -7.91493508E+00
 -8.10138452E-03 -3.10039656E-01 -4.47821458E-01  0.00000000E+00  0.00000000E+00
 -8.55767622E-01  0.00000000E+00  0.00000000E+00 -9.16824585E-01 -7.15919792E+00
  0.00000000E+00  0.00000000E+00  0.00000000E+00 -5.52044748E-01  0.00000000E+00
  0.00000000E+00 -4.98048896E-01  0.00000000E+00  0.00000000E+00  0.00000000E+00
 -6.84461477E+00  0.00000000E+00  0.00000000E+00  0.00000000E+00  0.00000000E+00
 -5.52044748E-01  0.00000000E+00  0.00000000E+00 -4.98048896E-01  0.00000000E+00
  0.00000000E+00  0.00000000E+00 -6.84461477E+00  6.36392492E-17  8.85072529E-17
 -7.93154433E-17  0.00000000E+00  0.00000000E+00 -1.23940712E-17  0.00000000E+00
  0.00000000E+00  1.19849585E-17 -2.38978548E-16  0.00000000E+00  0.00000000E+00
 -6.50443201E+00  0.00000000E+00  0.00000000E+00  0.00000000E+00  0.00000000E+00
  0.00000000E+00  0.00000000E+00  0.00000000E+00  0.00000000E+00  0.00000000E+00
  0.00000000E+00  0.00000000E+00  0.00000000E+00  0.00000000E+00 -6.50443201E+00
 -1.15148562E-05 -1.46376185E-01 -1.38749446E+00  0.00000000E+00  0.00000000E+00
 -3.56662236E-01  0.00000000E+00  0.00000000E+00 -3.41762636E+00 -7.66153537E-01
  0.00000000E+00  0.00000000E+00 -3.58882984E-19  0.00000000E+00 -3.54464181E+01
 -1.46376185E-01 -1.20362222E+00 -3.08041157E+00  0.00000000E+00  0.00000000E+00
 -1.83142889E+00  0.00000000E+00  0.00000000E+00 -5.78611913E+00 -2.42321996E+00
  0.00000000E+00  0.00000000E+00  6.10977723E-19  0.00000000E+00 -7.12832059E+00
 -1.21233284E+01 -1.38749446E+00 -3.08041157E+00 -4.95139974E+00  0.00000000E+00
  0.00000000E+00 -2.45882580E+00  0.00000000E+00  0.00000000E+00 -6.15235717E+00
 -1.73529606E+00  0.00000000E+00  0.00000000E+00 -7.95977337E-17  0.00000000E+00
 -6.28156824E+00 -9.54962669E+00 -1.00304347E+01  0.00000000E+00  0.00000000E+00
  0.00000000E+00 -5.03875636E-01  0.00000000E+00  0.00000000E+00 -1.64255239E+00
  0.00000000E+00  0.00000000E+00  0.00000000E+00 -1.18196458E+00  0.00000000E+00
  0.00000000E+00  0.00000000E+00  0.00000000E+00  0.00000000E+00  0.00000000E+00
 -1.08008065E+01  0.00000000E+00  0.00000000E+00  0.00000000E+00  0.00000000E+00
 -5.03875636E-01  0.00000000E+00  0.00000000E+00 -1.64255239E+00  0.00000000E+00
  0.00000000E+00  0.00000000E+00 -1.18196458E+00  0.00000000E+00  0.00000000E+00
  0.00000000E+00  0.00000000E+00  0.00000000E+00  0.00000000E+00 -1.08008065E+01
  3.56662236E-01  1.83142889E+00  2.45882580E+00  0.00000000E+00  0.00000000E+00
  2.51328851E+00  0.00000000E+00  0.00000000E+00  2.60176609E+00  2.89417297E+00
  0.00000000E+00  0.00000000E+00 -3.72660478E-17  0.00000000E+00  1.15736926E-01
  7.56359090E-01  7.50383337E-01  0.00000000E+00  0.00000000E+00 -1.11447207E+01
  0.00000000E+00  0.00000000E+00  0.00000000E+00 -1.64255239E+00  0.00000000E+00
  0.00000000E+00 -3.58357854E+00  0.00000000E+00  0.00000000E+00  0.00000000E+00
 -1.54670963E+00  0.00000000E+00  0.00000000E+00  0.00000000E+00  0.00000000E+00
  0.00000000E+00  0.00000000E+00 -4.89664735E+00  0.00000000E+00  0.00000000E+00
 -6.69078552E+00  0.00000000E+00  0.00000000E+00  0.00000000E+00  0.00000000E+00
 -1.64255239E+00  0.00000000E+00  0.00000000E+00 -3.58357854E+00  0.00000000E+00
  0.00000000E+00  0.00000000E+00 -1.54670963E+00  0.00000000E+00  0.00000000E+00
  0.00000000E+00  0.00000000E+00  0.00000000E+00  0.00000000E+00 -4.89664735E+00
  0.00000000E+00  0.00000000E+00 -6.69078552E+00  3.41762636E+00  5.78611913E+00
  6.15235717E+00  0.00000000E+00  0.00000000E+00  2.60176609E+00  0.00000000E+00
  0.00000000E+00  2.28877715E+00  7.75839455E-01  0.00000000E+00  0.00000000E+00
 -3.03856915E-17  0.00000000E+00  1.67884417E-02  5.02720327E-01  1.23959640E+00
  0.00000000E+00  0.00000000E+00 -5.24261697E+00  0.00000000E+00  0.00000000E+00
 -7.91493508E+00 -7.66153537E-01 -2.42321996E+00 -1.73529606E+00  0.00000000E+00
  0.00000000E+00 -2.89417297E+00  0.00000000E+00  0.00000000E+00 -7.75839455E-01
 -2.40809346E+00  0.00000000E+00  0.00000000E+00 -1.99845655E-17  0.00000000E+00
 -8.10138452E-03 -3.10039656E-01 -4.47821458E-01  0.00000000E+00  0.00000000E+00
  8.55767622E-01  0.00000000E+00  0.00000000E+00  9.16824585E-01 -7.15919792E+00
  0.00000000E+00  0.00000000E+00  0.00000000E+00  1.18196458E+00  0.00000000E+00
  0.00000000E+00  1.54670963E+00  0.00000000E+00  0.00000000E+00  0.00000000E+00
  2.30088319E+00  0.00000000E+00  0.00000000E+00  0.00000000E+00  0.00000000E+00
  0.00000000E+00  0.00000000E+00  5.52044748E-01  0.00000000E+00  0.00000000E+00
  4.98048896E-01  0.00000000E+00  0.00000000E+00  0.00000000E+00 -6.84461477E+00
  0.00000000E+00  0.00000000E+00  0.00000000E+00  0.00000000E+00  1.18196458E+00
  0.00000000E+00  0.00000000E+00  1.54670963E+00  0.00000000E+00  0.00000000E+00
  0.00000000E+00  2.30088319E+00  0.00000000E+00  0.00000000E+00  0.00000000E+00
  0.00000000E+00  0.00000000E+00  0.00000000E+00  5.52044748E-01  0.00000000E+00
  0.00000000E+00  4.98048896E-01  0.00000000E+00  0.00000000E+00  0.00000000E+00
 -6.84461477E+00 -3.58882984E-19  6.10977723E-19 -7.95977337E-17  0.00000000E+00
  0.00000000E+00  3.72660478E-17  0.00000000E+00  0.00000000E+00  3.03856915E-17
  8.75055927E-18  0.00000000E+00  0.00000000E+00 -4.61157235E-01  0.00000000E+00
  6.36392492E-17  8.85072529E-17 -7.93154433E-17  0.00000000E+00  0.00000000E+00
  1.23940712E-17  0.00000000E+00  0.00000000E+00 -1.19849585E-17 -1.79481875E-16
  0.00000000E+00  0.00000000E+00 -6.50443201E+00  0.00000000E+00  0.00000000E+00
  0.00000000E+00  0.00000000E+00  0.00000000E+00  0.00000000E+00  0.00000000E+00
  0.00000000E+00  0.00000000E+00  0.00000000E+00  0.00000000E+00  0.00000000E+00
  0.00000000E+00 -4.61157235E-01  0.00000000E+00  0.00000000E+00  0.00000000E+00
  0.00000000E+00  0.00000000E+00  0.00000000E+00  0.00000000E+00  0.00000000E+00
  0.00000000E+00  0.00000000E+00  0.00000000E+00  0.00000000E+00  0.00000000E+00
 -6.50443201E+00
Localized Alpha MO Coefficients (IBO)      R   N=         252
 -1.00346866E+00  1.80080063E-03  1.73188436E-02  5.97826354E-16 -2.81048684E-15
  1.23396576E-02  7.15247069E-16 -1.57148601E-15  7.71673037E-03  1.74007182E-03
 -8.52600477E-17 -1.65667806E-15 -3.12716580E-13  5.86543721E-16 -2.43991769E-03
  8.83961832E-03 -1.53946943E-03  1.56099690E-16  9.12541914E-17 -1.73224980E-02
 -6.51724472E-17  1.65521267E-15 -5.66576461E-03  2.18094821E-03  3.31067215E-16
 -1.21739764E-15 -9.96265271E-14 -3.11396981E-16  1.24689492E-03 -5.19142525E-03
  6.97554903E-03  3.43835643E-18  4.54460410E-16 -1.05853906E-02 -7.93453185E-17
  2.39313122E-16  9.70896992E-04 -2.39951004E-03 -1.08159158E-16  6.68567738E-16
  7.35271982E-14 -1.49622608E-16  1.01465715E+00 -3.72126069E-02 -6.01630295E-02
  1.00542549E-15 -1.13581262E-15 -7.60520763E-03  5.05262834E-16 -1.12300918E-15
 -1.73906169E-03  5.99244709E-05  1.92129372E-17  5.61495394E-16  9.77562984E-13
  5.79120041E-16  1.63279643E-02 -4.99805188E-02 -7.39350188E-02  1.03794787E-16
 -2.76137740E-17 -9.23355027E-02  3.97029682E-16  7.04536922E-17 -9.05406890E-02
  2.89487774E-03 -4.50177156E-17 -1.35257534E-17  3.56254989E-13  4.01928951E-17
 -1.15476389E-01  4.81930643E-01  5.82524870E-01 -3.42311758E-15 -7.50672333E-16
  2.71925966E-01 -2.11987893E-15 -7.74240959E-16  1.28987640E-01 -2.45639202E-02
  2.18832895E-17  8.86307747E-17 -9.04127248E-12 -2.33306845E-17 -1.89511441E-01
  4.83361852E-01  5.85367297E-01  1.59285610E-16 -2.63446881E-15 -2.71752282E-01
  4.73290572E-16 -1.10929038E-15 -1.28768349E-01 -2.45022839E-02  1.37169256E-16
 -2.22390104E-16 -9.08867304E-12  4.66286977E-17  1.61927133E-02 -4.94657892E-02
 -7.42473927E-02  4.00055540E-17  2.98208183E-16  9.13117003E-02 -4.19087926E-16
  3.15666417E-16  9.03684575E-02  3.06291209E-03 -1.39885981E-16 -1.24643990E-16
  3.49895134E-13  3.60281183E-17  8.60416442E-16 -5.27666345E-16  9.67267902E-16
  7.22965439E-01 -1.41413352E-16  8.65473077E-17  4.48736582E-01 -7.70279358E-17
  1.38380374E-15  4.85514143E-17  1.41795714E-02 -2.45035432E-17 -9.24894251E-17
  1.61334474E-17  5.54304205E-17  5.05896235E-16 -1.71743475E-15 -4.30336285E-02
 -1.40867279E-16 -1.78727555E-16 -9.23538082E-02  1.42827820E-16  7.32797404E-16
 -8.87903456E-17 -2.14410156E-02 -1.00464977E-16 -1.08539381E-17  2.16607090E-17
 -3.04817411E-15  1.39695369E-15  1.75913604E-15  3.03861511E-16  7.22965439E-01
 -1.76847494E-16  3.78056127E-17  4.48736582E-01 -2.08251065E-16 -1.15160461E-16
  5.72518188E-17  1.41795714E-02 -3.94497127E-17 -4.18014680E-17  2.76006018E-16
 -3.51115105E-16 -1.37843510E-16 -1.45743427E-16 -4.30336285E-02  1.09067227E-16
  1.06402545E-16 -9.23538082E-02  4.11072327E-16  1.38439988E-16  2.16175557E-16
 -2.14410155E-02 -1.74243385E-18 -4.37593343E-17  3.42712045E-02 -2.00902610E-01
 -3.11931581E-02  1.45445273E-16  2.77101809E-16 -4.22649529E-01  8.70115643E-17
  2.45805018E-16 -1.83621080E-01 -3.80294965E-02  1.19045833E-16  1.26174898E-17
  2.19121402E-12  1.16884870E-17  3.42712045E-02 -2.00902610E-01 -3.11931581E-02
 -1.52828532E-16  4.81844951E-16  4.22649529E-01 -2.69850295E-16  1.06778435E-17
  1.83621080E-01 -3.80294965E-02  4.56417768E-17 -3.56572403E-17  2.19117185E-12
  2.24906141E-17  2.24869060E-16  4.67201271E-17 -1.39280669E-15  4.30336285E-02
  9.32313797E-17  1.41666261E-16  9.23538082E-02 -6.46430195E-17 -1.74289563E-15
 -1.70465519E-16 -2.14410156E-02  7.79388349E-17 -4.79962206E-17 -2.59473046E-17
  1.46377767E-15 -2.42264292E-15 -3.91662037E-16 -7.22965439E-01  9.18547498E-16
 -8.41285399E-16 -4.48736582E-01  9.54012824E-17 -2.47869819E-15 -4.51606159E-17
  1.41795714E-02  1.90467082E-17 -5.43814786E-17  5.62579634E-17 -6.32721915E-16
 -9.08256853E-17 -1.50277474E-16 -5.63100098E-17 -4.30336285E-02 -6.21032690E-16
  9.69415191E-17 -9.23538082E-02  3.26454960E-16  7.74055159E-17  6.34263721E-17
  2.14410155E-02  5.51530814E-18  8.19234410E-17  1.05688315E-15  9.45284175E-16
  5.68193490E-16  1.67032702E-15  7.22965439E-01  7.59139564E-17 -1.55877022E-16
  4.48736582E-01 -3.34348952E-16 -7.93690426E-17 -7.59882190E-18 -1.41795714E-02
 -9.23408841E-20  1.14745107E-16
Localized Beta  MO Coefficients (IBO)      R   N=         252
 -1.00346866E+00  1.80080063E-03  1.73188436E-02  5.97826354E-16 -2.81048684E-15
  1.23396576E-02  7.15247069E-16 -1.57148601E-15  7.71673037E-03  1.74007182E-03
 -8.52600477E-17 -1.65667806E-15 -3.12716580E-13  5.86543721E-16 -2.43991769E-03
  8.83961832E-03 -1.53946943E-03  1.56099690E-16  9.12541914E-17 -1.73224980E-02
 -6.51724472E-17  1.65521267E-15 -5.66576461E-03  2.18094821E-03  3.31067215E-16
 -1.21739764E-15 -9.96265271E-14 -3.11396981E-16  1.24689492E-03 -5.19142525E-03
  6.97554903E-03  3.43835643E-18  4.54460410E-16 -1.05853906E-02 -7.93453185E-17
  2.39313122E-16  9.70896992E-04 -2.39951004E-03 -1.08159158E-16  6.68567738E-16
  7.35271982E-14 -1.49622608E-16  1.01465715E+00 -3.72126069E-02 -6.01630295E-02
  1.00542549E-15 -1.13581262E-15 -7.60520763E-03  5.05262834E-16 -1.12300918E-15
 -1.73906169E-03  5.99244709E-05  1.92129372E-17  5.61495394E-16  9.77562984E-13
  5.79120041E-16  1.63279643E-02 -4.99805188E-02 -7.39350188E-02  1.03794787E-16
 -2.76137740E-17 -9.23355027E-02  3.97029682E-16  7.04536922E-17 -9.05406890E-02
  2.89487774E-03 -4.50177156E-17 -1.35257534E-17  3.56254989E-13  4.01928951E-17
 -1.15476389E-01  4.81930643E-01  5.82524870E-01 -3.42311758E-15 -7.50672333E-16
  2.71925966E-01 -2.11987893E-15 -7.74240959E-16  1.28987640E-01 -2.45639202E-02
  2.18832895E-17  8.86307747E-17 -9.04127248E-12 -2.33306845E-17 -1.89511441E-01
  4.83361852E-01  5.85367297E-01  1.59285610E-16 -2.63446881E-15 -2.71752282E-01
  4.73290572E-16 -1.10929038E-15 -1.28768349E-01 -2.45022839E-02  1.37169256E-16
 -2.22390104E-16 -9.08867304E-12  4.66286977E-17  1.61927133E-02 -4.94657892E-02
 -7.42473927E-02  4.00055540E-17  2.98208183E-16  9.13117003E-02 -4.19087926E-16
  3.15666417E-16  9.03684575E-02  3.06291209E-03 -1.39885981E-16 -1.24643990E-16
  3.49895134E-13  3.60281183E-17  8.60416442E-16 -5.27666345E-16  9.67267902E-16
  7.22965439E-01 -1.41413352E-16  8.65473077E-17  4.48736582E-01 -7.70279358E-17
  1.38380374E-15  4.85514143E-17  1.41795714E-02 -2.45035432E-17 -9.24894251E-17
  1.61334474E-17  5.54304205E-17  5.05896235E-16 -1.71743475E-15 -4.30336285E-02
 -1.40867279E-16 -1.78727555E-16 -9.23538082E-02  1.42827820E-16  7.32797404E-16
 -8.87903456E-17 -2.14410156E-02 -1.00464977E-16 -1.08539381E-17  2.16607090E-17
 -3.04817411E-15  1.39695369E-15  1.75913604E-15  3.03861511E-16  7.22965439E-01
 -1.76847494E-16  3.78056127E-17  4.48736582E-01 -2.08251065E-16 -1.15160461E-16
  5.72518188E-17  1.41795714E-02 -3.94497127E-17 -4.18014680E-17  2.76006018E-16
 -3.51115105E-16 -1.37843510E-16 -1.45743427E-16 -4.30336285E-02  1.09067227E-16
  1.06402545E-16 -9.23538082E-02  4.11072327E-16  1.38439988E-16  2.16175557E-16
 -2.14410155E-02 -1.74243385E-18 -4.37593343E-17  3.42712045E-02 -2.00902610E-01
 -3.11931581E-02  1.45445273E-16  2.77101809E-16 -4.22649529E-01  8.70115643E-17
  2.45805018E-16 -1.83621080E-01 -3.80294965E-02  1.19045833E-16  1.26174898E-17
  2.19121402E-12  1.16884870E-17  3.42712045E-02 -2.00902610E-01 -3.11931581E-02
 -1.52828532E-16  4.81844951E-16  4.22649529E-01 -2.69850295E-16  1.06778435E-17
  1.83621080E-01 -3.80294965E-02  4.56417768E-17 -3.56572403E-17  2.19117185E-12
  2.24906141E-17  2.24869060E-16  4.67201271E-17 -1.39280669E-15  4.30336285E-02
  9.32313797E-17  1.41666261E-16  9.23538082E-02 -6.46430195E-17 -1.74289563E-15
 -1.70465519E-16 -2.14410156E-02  7.79388349E-17 -4.79962206E-17 -2.59473046E-17
  1.46377767E-15 -2.42264292E-15 -3.91662037E-16 -7.22965439E-01  9.18547498E-16
 -8.41285399E-16 -4.48736582E-01  9.54012824E-17 -2.47869819E-15 -4.51606159E-17
  1.41795714E-02  1.90467082E-17 -5.43814786E-17  5.62579634E-17 -6.32721915E-16
 -9.08256853E-17 -1.50277474E-16 -5.63100098E-17 -4.30336285E-02 -6.21032690E-16
  9.69415191E-17 -9.23538082E-02  3.26454960E-16  7.74055159E-17  6.34263721E-17
  2.14410155E-02  5.51530814E-18  8.19234410E-17  1.05688315E-15  9.45284175E-16
  5.68193490E-16  1.67032702E-15  7.22965439E-01  7.59139564E-17 -1.55877022E-16
  4.48736582E-01 -3.34348952E-16 -7.93690426E-17 -7.59882190E-18 -1.41795714E-02
 -9.23408841E-20  1.14745107E-16
Localized Alpha MO Coefficients (OSLO)     R   N=         252
 -1.00338592E+00 -7.00886098E-04  2.17944117E-02 -3.91388400E-16 -9.76253321E-16
 -5.07307143E-03  1.35100002E-16 -4.02588383E-16  1.03288833E-04  1.60276900E-04
 -1.07218325E-16 -1.62766284E-15 -3.20967650E-13  5.86860039E-16 -2.61204318E-04
  7.66683524E-04 -3.95932836E-03 -6.18889910E-17 -2.96084184E-16 -1.79605373E-03
 -1.33609384E-16  1.23427421E-15  1.54608312E-03  8.89331090E-04  3.62938794E-16
 -1.26916171E-15 -9.20793766E-15 -3.09632606E-16  8.28146018E-16 -1.07225955E-15
 -2.96340146E-15 -7.22965439E-01 -9.15943858E-07  8.81921548E-16 -4.48736582E-01
 -5.68516133E-07 -9.30037421E-16  3.84963334E-17 -1.41795714E-02 -1.79644706E-08
  9.24894751E-17 -1.61333944E-17 -1.23055257E-16 -2.87609566E-16  2.03510022E-15
  4.30336285E-02  5.45204315E-08 -6.38881183E-17  9.23538082E-02  1.17005459E-07
 -9.95769258E-16  7.53049779E-17  2.14410156E-02  2.71641845E-08  1.08539403E-17
 -2.16606536E-17 -1.05659373E-15  8.71907186E-16  8.87714090E-16 -9.15943857E-07
  7.22965439E-01  5.96899235E-16 -5.68516133E-07  4.48736582E-01  1.29348619E-16
 -4.41314669E-17 -1.79644705E-08  1.41795714E-02 -3.94495955E-17 -4.18014885E-17
 -1.30629646E-16 -2.56036070E-17  9.88441214E-17  5.45204311E-08 -4.30336285E-02
 -3.79399788E-16  1.17005459E-07 -9.23538082E-02  1.13441205E-16  1.64196717E-16
  2.71641846E-08 -2.14410155E-02 -1.74242010E-18 -4.37593617E-17  2.61204318E-04
 -7.66683524E-04  3.95932836E-03 -1.45373246E-16  2.51384825E-16 -1.79605373E-03
 -8.94400624E-17 -1.14460274E-18  1.54608312E-03 -8.89331090E-04 -1.38848560E-16
  7.00167243E-16  9.01257534E-15 -1.46662020E-16  1.00338592E+00  7.00886098E-04
 -2.17944117E-02  9.95934276E-18  1.39589334E-16 -5.07307143E-03 -8.68930065E-17
 -3.25832409E-16  1.03288833E-04 -1.60276900E-04  3.88724276E-17  5.44528411E-16
  3.20719631E-13  5.75138686E-16 -1.29878627E-16  5.64055785E-16  1.74425542E-15
 -4.30336285E-02 -2.01350847E-07  1.77209495E-16 -9.23538082E-02 -4.32115955E-07
  1.73517252E-15  2.19061498E-16  2.14410156E-02  1.00320767E-07  4.79962464E-17
  2.59476879E-17 -1.35801944E-15  4.55010768E-15  2.70491299E-15  7.22965439E-01
  3.38269647E-06  1.87414231E-15  4.48736582E-01  2.09960196E-06  3.07703395E-15
 -8.29727869E-18 -1.41795714E-02 -6.63450612E-08  5.43814782E-17 -5.62574265E-17
  3.62616393E-16 -2.81841622E-16 -5.00421843E-17  2.01350847E-07 -4.30336285E-02
 -8.55530122E-16  4.32115955E-07 -9.23538082E-02  4.02456503E-16  1.62535176E-17
 -1.00320767E-07  2.14410155E-02  5.51508357E-18  8.19233196E-17  4.22647204E-16
 -1.05394788E-15 -1.50101787E-15 -3.38269647E-06  7.22965439E-01 -2.33645739E-16
 -2.09960196E-06  4.48736582E-01 -5.14839017E-16 -4.96547431E-17  6.63450612E-08
 -1.41795714E-02 -9.25952961E-20  1.14745370E-16  1.92384403E-01 -5.20287260E-01
 -5.75769414E-01  1.93305014E-15  1.33057978E-15  1.50101486E-01  7.95029857E-16
  3.54758486E-16  7.38224393E-02  1.39362560E-02 -4.58135722E-17  1.92414888E-16
  9.35334631E-12 -4.17715408E-17 -2.84246919E-03  1.25848512E-02  8.36120527E-02
  1.66226943E-16 -2.66303827E-16  3.02771366E-02  2.99602586E-16 -2.58762321E-16
 -3.54032038E-02 -1.36228238E-02  7.49172462E-17  1.60658613E-16 -8.24874126E-14
 -2.52393648E-17 -2.84246919E-03  1.25848512E-02  8.36120527E-02 -6.06618957E-16
  3.03324194E-16 -3.02771366E-02 -9.65753907E-16  3.79938876E-16  3.54032038E-02
 -1.36228238E-02  1.54309400E-16 -4.28221673E-18 -8.24908420E-14 -5.07936610E-17
  1.92384403E-01 -5.20287260E-01 -5.75769414E-01  6.34029703E-15 -1.88967478E-15
 -1.50101486E-01  3.89321794E-15 -9.98154126E-16 -7.38224393E-02  1.39362560E-02
 -6.49421129E-17  3.61917486E-18  9.35326384E-12  7.37191864E-17  2.24362310E-02
 -7.53026870E-02  1.02229184E-01 -2.81030344E-16  7.46518520E-16 -4.87643278E-01
 -8.99255585E-17  7.08740288E-16 -2.27707170E-01 -4.10262499E-02  1.50732026E-16
  3.05013118E-17 -2.01292811E-13  1.03670116E-17  2.24362310E-02 -7.53026870E-02
  1.02229184E-01 -1.89245610E-16 -6.66480610E-17  4.87643278E-01 -3.39132390E-16
 -5.11555987E-16  2.27707170E-01 -4.10262499E-02 -2.42582612E-18 -1.51122483E-17
 -2.01318247E-13  4.43607071E-17
Localized Beta  MO Coefficients (OSLO)     R   N=         196
 -1.00293346E+00 -6.70057692E-04  1.77518037E-02 -1.72936791E-16 -1.62050595E-15
 -5.07729528E-03  2.12716391E-16 -9.93322494E-16 -1.50291494E-03 -2.22991040E-04
 -1.00598127E-16 -1.65768017E-15 -2.41058926E-13  5.83385585E-16 -3.72547027E-04
  6.55330512E-04 -1.42743802E-03  1.75859001E-16 -1.25509139E-16 -1.99649380E-03
 -1.32644090E-16  1.33480378E-15  9.95522629E-05  8.91685260E-04  3.61616970E-16