Jobname.Temp
SP        U                             cc-pVDZ             
Number of atoms                            I                2
Charge                                     I                0
Multiplicity                               I                3
Number of electrons                        I               16
Number of alpha electrons                  I                9
Number of beta electrons                   I                7
Atomic numbers                             I   N=           2
           8           8
Current cartesian coordinates              R   N=           6
  0.00000000E+00  0.00000000E+00 -1.14044972E+00  0.00000000E+00  0.00000000E+00
  1.14044972E+00
Nuclear charges                            R   N=           2
  8.00000000E+00  8.00000000E+00
Number of basis functions                  I               28
Number of contracted shells                I               12
Number of primitive shells                 I               40
Highest angular momentum                   I                2
Largest degree of contraction              I                7
Shell types                                I   N=          12
           0           0           0           1           1          -2
           0           0           0           1           1          -2
Number of primitives per shell             I   N=          12
           7           7           1           3           1           1
           7           7           1           3           1           1
Shell to atom map                          I   N=          12
           1           1           1           1           1           1
           2           2           2           2           2           2
Primitive exponents                        R   N=          40
  1.17200000E+04  1.75900000E+03  4.00800000E+02  1.13700000E+02  3.70300000E+01
  1.32700000E+01  5.02500000E+00  1.17200000E+04  1.75900000E+03  1.13700000E+02
  3.70300000E+01  1.32700000E+01  5.02500000E+00  1.01300000E+00  3.02300000E-01
  1.77000000E+01  3.85400000E+00  1.04600000E+00  2.75300000E-01  1.18500000E+00
  1.17200000E+04  1.75900000E+03  4.00800000E+02  1.13700000E+02  3.70300000E+01
  1.32700000E+01  5.02500000E+00  1.17200000E+04  1.75900000E+03  1.13700000E+02
  3.70300000E+01  1.32700000E+01  5.02500000E+00  1.01300000E+00  3.02300000E-01
  1.77000000E+01  3.85400000E+00  1.04600000E+00  2.75300000E-01  1.18500000E+00
Contraction coefficients                   R   N=          40
  7.11859989E-04  5.48520206E-03  2.79099247E-02  1.05133208E-01  2.84002488E-01
  4.51673950E-01  2.73208124E-01 -3.13436252E-07 -6.17665315E-05 -4.15726173E-03
 -1.41000865E-02 -1.26138482E-01 -1.09614593E-01  1.09868833E+00  1.00000000E+00
  6.26791663E-02  3.33536566E-01  7.41239642E-01  1.00000000E+00  1.00000000E+00
  7.11859989E-04  5.48520206E-03  2.79099247E-02  1.05133208E-01  2.84002488E-01
  4.51673950E-01  2.73208124E-01 -3.13436252E-07 -6.17665315E-05 -4.15726173E-03
 -1.41000865E-02 -1.26138482E-01 -1.09614593E-01  1.09868833E+00  1.00000000E+00
  6.26791663E-02  3.33536566E-01  7.41239642E-01  1.00000000E+00  1.00000000E+00
Coordinates of each shell                  R   N=          36
  0.00000000E+00  0.00000000E+00 -1.14044972E+00  0.00000000E+00  0.00000000E+00
 -1.14044972E+00  0.00000000E+00  0.00000000E+00 -1.14044972E+00  0.00000000E+00
  0.00000000E+00 -1.14044972E+00  0.00000000E+00  0.00000000E+00 -1.14044972E+00
  0.00000000E+00  0.00000000E+00 -1.14044972E+00  0.00000000E+00  0.00000000E+00
  1.14044972E+00  0.00000000E+00  0.00000000E+00  1.14044972E+00  0.00000000E+00
  0.00000000E+00  1.14044972E+00  0.00000000E+00  0.00000000E+00  1.14044972E+00
  0.00000000E+00  0.00000000E+00  1.14044972E+00  0.00000000E+00  0.00000000E+00
  1.14044972E+00
Overlap Matrix                             R   N=         406
  1.00000000E+00  2.14476014E-01  1.00000000E+00  1.83816867E-01  7.92109402E-01
  1.00000000E+00  0.00000000E+00  0.00000000E+00  0.00000000E+00  1.00000000E+00
  0.00000000E+00  0.00000000E+00  0.00000000E+00  0.00000000E+00  1.00000000E+00
  1.26372434E-16  3.35977035E-16 -1.52560333E-17  0.00000000E+00  0.00000000E+00
  1.00000000E+00  0.00000000E+00  0.00000000E+00  0.00000000E+00  5.01271483E-01
  0.00000000E+00  0.00000000E+00  1.00000000E+00  0.00000000E+00  0.00000000E+00
  0.00000000E+00  0.00000000E+00  5.01271483E-01  0.00000000E+00  0.00000000E+00
  1.00000000E+00 -3.46008462E-17  2.01991153E-16  0.00000000E+00  0.00000000E+00
  0.00000000E+00  5.01271483E-01  0.00000000E+00  0.00000000E+00  1.00000000E+00
  0.00000000E+00  0.00000000E+00  0.00000000E+00  0.00000000E+00  0.00000000E+00
 -5.35127304E-16  0.00000000E+00  0.00000000E+00  3.02116360E-16  1.00000000E+00
  0.00000000E+00  0.00000000E+00  0.00000000E+00 -4.63433840E-16  0.00000000E+00
  0.00000000E+00  2.61640442E-16  0.00000000E+00  0.00000000E+00  0.00000000E+00
  1.00000000E+00  0.00000000E+00  0.00000000E+00  0.00000000E+00  0.00000000E+00
 -4.63433840E-16  0.00000000E+00  0.00000000E+00  2.61640442E-16  0.00000000E+00
  0.00000000E+00  0.00000000E+00  1.00000000E+00  2.95546284E-18  3.53361838E-17
  4.56638999E-17  0.00000000E+00  0.00000000E+00  3.42755749E-35  0.00000000E+00
  0.00000000E+00  5.69926860E-33  2.47902802E-17  0.00000000E+00  0.00000000E+00
  1.00000000E+00  0.00000000E+00  0.00000000E+00  0.00000000E+00  0.00000000E+00
  0.00000000E+00  0.00000000E+00  0.00000000E+00  0.00000000E+00  0.00000000E+00
  0.00000000E+00  0.00000000E+00  0.00000000E+00  0.00000000E+00  1.00000000E+00
  1.58328112E-07  4.17194473E-03  4.04000563E-02  0.00000000E+00  0.00000000E+00
  1.02374473E-02  0.00000000E+00  0.00000000E+00  9.97669115E-02  2.20697300E-02
  0.00000000E+00  0.00000000E+00  1.57292736E-22  0.00000000E+00  1.00000000E+00
  4.17194473E-03  8.38303122E-02  2.40141411E-01  0.00000000E+00  0.00000000E+00
  1.33026715E-01  0.00000000E+00  0.00000000E+00  4.67262845E-01  1.85878476E-01
  0.00000000E+00  0.00000000E+00  1.40703316E-18  0.00000000E+00  2.14476014E-01
  1.00000000E+00  4.04000563E-02  2.40141411E-01  4.55500616E-01  0.00000000E+00
  0.00000000E+00  1.93848444E-01  0.00000000E+00  0.00000000E+00  5.91004299E-01
  1.21304994E-01  0.00000000E+00  0.00000000E+00  7.87324500E-18  0.00000000E+00
  1.83816867E-01  7.92109402E-01  1.00000000E+00  0.00000000E+00  0.00000000E+00
  0.00000000E+00  4.04046522E-02  0.00000000E+00  0.00000000E+00  1.57696754E-01
  0.00000000E+00  0.00000000E+00  0.00000000E+00  1.03073367E-01  0.00000000E+00
  0.00000000E+00  0.00000000E+00  0.00000000E+00  0.00000000E+00  0.00000000E+00
  1.00000000E+00  0.00000000E+00  0.00000000E+00  0.00000000E+00  0.00000000E+00
  4.04046522E-02  0.00000000E+00  0.00000000E+00  1.57696754E-01  0.00000000E+00
  0.00000000E+00  0.00000000E+00  1.03073367E-01  0.00000000E+00  0.00000000E+00
  0.00000000E+00  0.00000000E+00  0.00000000E+00  0.00000000E+00  1.00000000E+00
 -1.02374473E-02 -1.33026715E-01 -1.93848444E-01  0.00000000E+00  0.00000000E+00
 -1.92893807E-01  0.00000000E+00  0.00000000E+00 -2.06411149E-01 -2.41333834E-01
  0.00000000E+00  0.00000000E+00 -6.20943583E-19  0.00000000E+00 -1.26372434E-16
 -3.35977035E-16  1.52560333E-17  0.00000000E+00  0.00000000E+00  1.00000000E+00
  0.00000000E+00  0.00000000E+00  0.00000000E+00  1.57696754E-01  0.00000000E+00
  0.00000000E+00  4.88642358E-01  0.00000000E+00  0.00000000E+00  0.00000000E+00
  1.58482654E-01  0.00000000E+00  0.00000000E+00  0.00000000E+00  0.00000000E+00
  0.00000000E+00  0.00000000E+00  5.01271483E-01  0.00000000E+00  0.00000000E+00
  1.00000000E+00  0.00000000E+00  0.00000000E+00  0.00000000E+00  0.00000000E+00
  1.57696754E-01  0.00000000E+00  0.00000000E+00  4.88642358E-01  0.00000000E+00
  0.00000000E+00  0.00000000E+00  1.58482654E-01  0.00000000E+00  0.00000000E+00
  0.00000000E+00  0.00000000E+00  0.00000000E+00  0.00000000E+00  5.01271483E-01
  0.00000000E+00  0.00000000E+00  1.00000000E+00 -9.97669115E-02 -4.67262845E-01
 -5.91004299E-01  0.00000000E+00  0.00000000E+00 -2.06411149E-01  0.00000000E+00
  0.00000000E+00 -2.11215103E-01 -2.96893982E-02  0.00000000E+00  0.00000000E+00
 -9.74463594E-19  0.00000000E+00  3.46008462E-17 -2.01991153E-16  0.00000000E+00
  0.00000000E+00  0.00000000E+00  5.01271483E-01  0.00000000E+00  0.00000000E+00
  1.00000000E+00  2.20697300E-02  1.85878476E-01  1.21304994E-01  0.00000000E+00
  0.00000000E+00  2.41333834E-01  0.00000000E+00  0.00000000E+00  2.96893982E-02
  2.49810046E-01  0.00000000E+00  0.00000000E+00  2.00370345E-18  0.00000000E+00
  0.00000000E+00  0.00000000E+00  0.00000000E+00  0.00000000E+00  0.00000000E+00
  5.35127304E-16  0.00000000E+00  0.00000000E+00 -3.02116360E-16  1.00000000E+00
  0.00000000E+00  0.00000000E+00  0.00000000E+00 -1.03073367E-01  0.00000000E+00
  0.00000000E+00 -1.58482654E-01  0.00000000E+00  0.00000000E+00  0.00000000E+00
 -2.36789382E-01  0.00000000E+00  0.00000000E+00  0.00000000E+00  0.00000000E+00
  0.00000000E+00  0.00000000E+00  4.63433840E-16  0.00000000E+00  0.00000000E+00
 -2.61640442E-16  0.00000000E+00  0.00000000E+00  0.00000000E+00  1.00000000E+00
  0.00000000E+00  0.00000000E+00  0.00000000E+00  0.00000000E+00 -1.03073367E-01
  0.00000000E+00  0.00000000E+00 -1.58482654E-01  0.00000000E+00  0.00000000E+00
  0.00000000E+00 -2.36789382E-01  0.00000000E+00  0.00000000E+00  0.00000000E+00
  0.00000000E+00  0.00000000E+00  0.00000000E+00  4.63433840E-16  0.00000000E+00
  0.00000000E+00 -2.61640442E-16  0.00000000E+00  0.00000000E+00  0.00000000E+00
  1.00000000E+00 -3.21337399E-21  1.40703316E-18  7.87324500E-18  0.00000000E+00
  0.00000000E+00 -2.59940829E-18  0.00000000E+00  0.00000000E+00  9.74463594E-19
 -9.61157088E-19  0.00000000E+00  0.00000000E+00  4.58453012E-02  0.00000000E+00
  2.95546284E-18  3.53361838E-17  4.56638999E-17  0.00000000E+00  0.00000000E+00
 -3.42755749E-35  0.00000000E+00  0.00000000E+00 -5.69926860E-33  2.47902802E-17
  0.00000000E+00  0.00000000E+00  1.00000000E+00  0.00000000E+00  0.00000000E+00
  0.00000000E+00  0.00000000E+00  0.00000000E+00  0.00000000E+00  0.00000000E+00
  0.00000000E+00  0.00000000E+00  0.00000000E+00  0.00000000E+00  0.00000000E+00
  0.00000000E+00  4.58453012E-02  0.00000000E+00  0.00000000E+00  0.00000000E+00
  0.00000000E+00  0.00000000E+00  0.00000000E+00  0.00000000E+00  0.00000000E+00
  0.00000000E+00  0.00000000E+00  0.00000000E+00  0.00000000E+00  0.00000000E+00
  1.00000000E+00
Core Hamiltonian Matrix                    R   N=         406
 -3.54464181E+01 -7.12832059E+00 -1.21233284E+01 -6.28156824E+00 -9.54962669E+00
 -1.00304347E+01  0.00000000E+00  0.00000000E+00  0.00000000E+00 -1.08008065E+01
  0.00000000E+00  0.00000000E+00  0.00000000E+00  0.00000000E+00 -1.08008065E+01
 -1.15736926E-01 -7.56359090E-01 -7.50383337E-01  0.00000000E+00  0.00000000E+00
 -1.11447207E+01  0.00000000E+00  0.00000000E+00  0.00000000E+00 -4.89664735E+00
  0.00000000E+00  0.00000000E+00 -6.69078552E+00  0.00000000E+00  0.00000000E+00
  0.00000000E+00  0.00000000E+00 -4.89664735E+00  0.00000000E+00  0.00000000E+00
 -6.69078552E+00 -1.67884417E-02 -5.02720327E-01 -1.23959640E+00  0.00000000E+00
  0.00000000E+00 -5.24261697E+00  0.00000000E+00  0.00000000E+00 -7.91493508E+00
 -8.10138452E-03 -3.10039656E-01 -4.47821458E-01  0.00000000E+00  0.00000000E+00
 -8.55767622E-01  0.00000000E+00  0.00000000E+00 -9.16824585E-01 -7.15919792E+00
  0.00000000E+00  0.00000000E+00  0.00000000E+00 -5.52044748E-01  0.00000000E+00
  0.00000000E+00 -4.98048896E-01  0.00000000E+00  0.00000000E+00  0.00000000E+00
 -6.84461477E+00  0.00000000E+00  0.00000000E+00  0.00000000E+00  0.00000000E+00
 -5.52044748E-01  0.00000000E+00  0.00000000E+00 -4.98048896E-01  0.00000000E+00
  0.00000000E+00  0.00000000E+00 -6.84461477E+00  6.36392492E-17  8.85072529E-17
 -7.93154433E-17  0.00000000E+00  0.00000000E+00 -1.23940712E-17  0.00000000E+00
  0.00000000E+00  1.19849585E-17 -2.38978548E-16  0.00000000E+00  0.00000000E+00
 -6.50443201E+00  0.00000000E+00  0.00000000E+00  0.00000000E+00  0.00000000E+00
  0.00000000E+00  0.00000000E+00  0.00000000E+00  0.00000000E+00  0.00000000E+00
  0.00000000E+00  0.00000000E+00  0.00000000E+00  0.00000000E+00 -6.50443201E+00
 -1.15148562E-05 -1.46376185E-01 -1.38749446E+00  0.00000000E+00  0.00000000E+00
 -3.56662236E-01  0.00000000E+00  0.00000000E+00 -3.41762636E+00 -7.66153537E-01
  0.00000000E+00  0.00000000E+00 -3.58882984E-19  0.00000000E+00 -3.54464181E+01
 -1.46376185E-01 -1.20362222E+00 -3.08041157E+00  0.00000000E+00  0.00000000E+00
 -1.83142889E+00  0.00000000E+00  0.00000000E+00 -5.78611913E+00 -2.42321996E+00
  0.00000000E+00  0.00000000E+00  6.10977723E-19  0.00000000E+00 -7.12832059E+00
 -1.21233284E+01 -1.38749446E+00 -3.08041157E+00 -4.95139974E+00  0.00000000E+00
  0.00000000E+00 -2.45882580E+00  0.00000000E+00  0.00000000E+00 -6.15235717E+00
 -1.73529606E+00  0.00000000E+00  0.00000000E+00 -7.95977337E-17  0.00000000E+00
 -6.28156824E+00 -9.54962669E+00 -1.00304347E+01  0.00000000E+00  0.00000000E+00
  0.00000000E+00 -5.03875636E-01  0.00000000E+00  0.00000000E+00 -1.64255239E+00
  0.00000000E+00  0.00000000E+00  0.00000000E+00 -1.18196458E+00  0.00000000E+00
  0.00000000E+00  0.00000000E+00  0.00000000E+00  0.00000000E+00  0.00000000E+00
 -1.08008065E+01  0.00000000E+00  0.00000000E+00  0.00000000E+00  0.00000000E+00
 -5.03875636E-01  0.00000000E+00  0.00000000E+00 -1.64255239E+00  0.00000000E+00
  0.00000000E+00  0.00000000E+00 -1.18196458E+00  0.00000000E+00  0.00000000E+00
  0.00000000E+00  0.00000000E+00  0.00000000E+00  0.00000000E+00 -1.08008065E+01
  3.56662236E-01  1.83142889E+00  2.45882580E+00  0.00000000E+00  0.00000000E+00
  2.51328851E+00  0.00000000E+00  0.00000000E+00  2.60176609E+00  2.89417297E+00
  0.00000000E+00  0.00000000E+00 -3.72660478E-17  0.00000000E+00  1.15736926E-01
  7.56359090E-01  7.50383337E-01  0.00000000E+00  0.00000000E+00 -1.11447207E+01
  0.00000000E+00  0.00000000E+00  0.00000000E+00 -1.64255239E+00  0.00000000E+00
  0.00000000E+00 -3.58357854E+00  0.00000000E+00  0.00000000E+00  0.00000000E+00
 -1.54670963E+00  0.00000000E+00  0.00000000E+00  0.00000000E+00  0.00000000E+00
  0.00000000E+00  0.00000000E+00 -4.89664735E+00  0.00000000E+00  0.00000000E+00
 -6.69078552E+00  0.00000000E+00  0.00000000E+00  0.00000000E+00  0.00000000E+00
 -1.64255239E+00  0.00000000E+00  0.00000000E+00 -3.58357854E+00  0.00000000E+00
  0.00000000E+00  0.00000000E+00 -1.54670963E+00  0.00000000E+00  0.00000000E+00
  0.00000000E+00  0.00000000E+00  0.00000000E+00  0.00000000E+00 -4.89664735E+00
  0.00000000E+00  0.00000000E+00 -6.69078552E+00  3.41762636E+00  5.78611913E+00
  6.15235717E+00  0.00000000E+00  0.00000000E+00  2.60176609E+00  0.00000000E+00
  0.00000000E+00  2.28877715E+00  7.75839455E-01  0.00000000E+00  0.00000000E+00
 -3.03856915E-17  0.00000000E+00  1.67884417E-02  5.02720327E-01  1.23959640E+00
  0.00000000E+00  0.00000000E+00 -5.24261697E+00  0.00000000E+00  0.00000000E+00
 -7.91493508E+00 -7.66153537E-01 -2.42321996E+00 -1.73529606E+00  0.00000000E+00
  0.00000000E+00 -2.89417297E+00  0.00000000E+00  0.00000000E+00 -7.75839455E-01
 -2.40809346E+00  0.00000000E+00  0.00000000E+00 -1.99845655E-17  0.00000000E+00
 -8.10138452E-03 -3.10039656E-01 -4.47821458E-01  0.00000000E+00  0.00000000E+00
  8.55767622E-01  0.00000000E+00  0.00000000E+00  9.16824585E-01 -7.15919792E+00
  0.00000000E+00  0.00000000E+00  0.00000000E+00  1.18196458E+00  0.00000000E+00
  0.00000000E+00  1.54670963E+00  0.00000000E+00  0.00000000E+00  0.00000000E+00
  2.30088319E+00  0.00000000E+00  0.00000000E+00  0.00000000E+00  0.00000000E+00
  0.00000000E+00  0.00000000E+00  5.52044748E-01  0.00000000E+00  0.00000000E+00
  4.98048896E-01  0.00000000E+00  0.00000000E+00  0.00000000E+00 -6.84461477E+00
  0.00000000E+00  0.00000000E+00  0.00000000E+00  0.00000000E+00  1.18196458E+00
  0.00000000E+00  0.00000000E+00  1.54670963E+00  0.00000000E+00  0.00000000E+00
  0.00000000E+00  2.30088319E+00  0.00000000E+00  0.00000000E+00  0.00000000E+00
  0.00000000E+00  0.00000000E+00  0.00000000E+00  5.52044748E-01  0.00000000E+00
  0.00000000E+00  4.98048896E-01  0.00000000E+00  0.00000000E+00  0.00000000E+00
 -6.84461477E+00 -3.58882984E-19  6.10977723E-19 -7.95977337E-17  0.00000000E+00
  0.00000000E+00  3.72660478E-17  0.00000000E+00  0.00000000E+00  3.03856915E-17
  8.75055927E-18  0.00000000E+00  0.00000000E+00 -4.61157235E-01  0.00000000E+00
  6.36392492E-17  8.85072529E-17 -7.93154433E-17  0.00000000E+00  0.00000000E+00
  1.23940712E-17  0.00000000E+00  0.00000000E+00 -1.19849585E-17 -1.79481875E-16
  0.00000000E+00  0.00000000E+00 -6.50443201E+00  0.00000000E+00  0.00000000E+00
  0.00000000E+00  0.00000000E+00  0.00000000E+00  0.00000000E+00  0.00000000E+00
  0.00000000E+00  0.00000000E+00  0.00000000E+00  0.00000000E+00  0.00000000E+00
  0.00000000E+00 -4.61157235E-01  0.00000000E+00  0.00000000E+00  0.00000000E+00
  0.00000000E+00  0.00000000E+00  0.00000000E+00  0.00000000E+00  0.00000000E+00
  0.00000000E+00  0.00000000E+00  0.00000000E+00  0.00000000E+00  0.00000000E+00
 -6.50443201E+00
