Jobname.Temp
SP        U                             cc-pVDZ             
Number of atoms                            I                2
Charge                                     I                0
Multiplicity                               I                3
Number of electrons                        I               16
Number of alpha electrons                  I                9
Number of beta electrons                   I                7
Atomic numbers                             I   N=           2
           8           8
Current cartesian coordinates              R   N=           6
  0.00000000E+00  0.00000000E+00 -1.14044972E+00  0.00000000E+00  0.00000000E+00
  1.14044972E+00
Nuclear charges                            R   N=           2
  8.00000000E+00  8.00000000E+00
Number of basis functions                  I               28
Number of contracted shells                I               12
Number of primitive shells                 I               40
Highest angular momentum                   I                2
Largest degree of contraction              I                7
Shell types                                I   N=          12
           0           0           0           1           1          -2
           0           0           0           1           1          -2
Number of primitives per shell             I   N=          12
           7           7           1           3           1           1
           7           7           1           3           1           1
Shell to atom map                          I   N=          12
           1           1           1           1           1           1
           2           2           2           2           2           2
Primitive exponents                        R   N=          40
  1.17200000E+04  1.75900000E+03  4.00800000E+02  1.13700000E+02  3.70300000E+01
  1.32700000E+01  5.02500000E+00  1.17200000E+04  1.75900000E+03  1.13700000E+02
  3.70300000E+01  1.32700000E+01  5.02500000E+00  1.01300000E+00  3.02300000E-01
  1.77000000E+01  3.85400000E+00  1.04600000E+00  2.75300000E-01  1.18500000E+00
  1.17200000E+04  1.75900000E+03  4.00800000E+02  1.13700000E+02  3.70300000E+01
  1.32700000E+01  5.02500000E+00  1.17200000E+04  1.75900000E+03  1.13700000E+02
  3.70300000E+01  1.32700000E+01  5.02500000E+00  1.01300000E+00  3.02300000E-01
  1.77000000E+01  3.85400000E+00  1.04600000E+00  2.75300000E-01  1.18500000E+00
Contraction coefficients                   R   N=          40
  7.11859989E-04  5.48520206E-03  2.79099247E-02  1.05133208E-01  2.84002488E-01
  4.51673950E-01  2.73208124E-01 -3.13436252E-07 -6.17665315E-05 -4.15726173E-03
 -1.41000865E-02 -1.26138482E-01 -1.09614593E-01  1.09868833E+00  1.00000000E+00
  6.26791663E-02  3.33536566E-01  7.41239642E-01  1.00000000E+00  1.00000000E+00
  7.11859989E-04  5.48520206E-03  2.79099247E-02  1.05133208E-01  2.84002488E-01
  4.51673950E-01  2.73208124E-01 -3.13436252E-07 -6.17665315E-05 -4.15726173E-03
 -1.41000865E-02 -1.26138482E-01 -1.09614593E-01  1.09868833E+00  1.00000000E+00
  6.26791663E-02  3.33536566E-01  7.41239642E-01  1.00000000E+00  1.00000000E+00
Coordinates of each shell                  R   N=          36
  0.00000000E+00  0.00000000E+00 -1.14044972E+00  0.00000000E+00  0.00000000E+00
 -1.14044972E+00  0.00000000E+00  0.00000000E+00 -1.14044972E+00  0.00000000E+00
  0.00000000E+00 -1.14044972E+00  0.00000000E+00  0.00000000E+00 -1.14044972E+00
  0.00000000E+00  0.00000000E+00 -1.14044972E+00  0.00000000E+00  0.00000000E+00
  1.14044972E+00  0.00000000E+00  0.00000000E+00  1.14044972E+00  0.00000000E+00
  0.00000000E+00  1.14044972E+00  0.00000000E+00  0.00000000E+00  1.14044972E+00
  0.00000000E+00  0.00000000E+00  1.14044972E+00  0.00000000E+00  0.00000000E+00
  1.14044972E+00
Overlap Matrix                             R   N=         406
  1.00000000E+00  2.14476014E-01  1.00000000E+00  1.83816867E-01  7.92109402E-01
  1.00000000E+00  0.00000000E+00  0.00000000E+00  0.00000000E+00  1.00000000E+00
  0.00000000E+00  0.00000000E+00  0.00000000E+00  0.00000000E+00  1.00000000E+00
  1.26372434E-16  3.35977035E-16 -1.52560333E-17  0.00000000E+00  0.00000000E+00
  1.00000000E+00  0.00000000E+00  0.00000000E+00  0.00000000E+00  5.01271483E-01
  0.00000000E+00  0.00000000E+00  1.00000000E+00  0.00000000E+00  0.00000000E+00
  0.00000000E+00  0.00000000E+00  5.01271483E-01  0.00000000E+00  0.00000000E+00
  1.00000000E+00 -3.46008462E-17  2.01991153E-16  0.00000000E+00  0.00000000E+00
  0.00000000E+00  5.01271483E-01  0.00000000E+00  0.00000000E+00  1.00000000E+00
  0.00000000E+00  0.00000000E+00  0.00000000E+00  0.00000000E+00  0.00000000E+00
 -5.35127304E-16  0.00000000E+00  0.00000000E+00  3.02116360E-16  1.00000000E+00
  0.00000000E+00  0.00000000E+00  0.00000000E+00 -4.63433840E-16  0.00000000E+00
  0.00000000E+00  2.61640442E-16  0.00000000E+00  0.00000000E+00  0.00000000E+00
  1.00000000E+00  0.00000000E+00  0.00000000E+00  0.00000000E+00  0.00000000E+00
 -4.63433840E-16  0.00000000E+00  0.00000000E+00  2.61640442E-16  0.00000000E+00
  0.00000000E+00  0.00000000E+00  1.00000000E+00  2.95546284E-18  3.53361838E-17
  4.56638999E-17  0.00000000E+00  0.00000000E+00  3.42755749E-35  0.00000000E+00
  0.00000000E+00  5.69926860E-33  2.47902802E-17  0.00000000E+00  0.00000000E+00
  1.00000000E+00  0.00000000E+00  0.00000000E+00  0.00000000E+00  0.00000000E+00
  0.00000000E+00  0.00000000E+00  0.00000000E+00  0.00000000E+00  0.00000000E+00
  0.00000000E+00  0.00000000E+00  0.00000000E+00  0.00000000E+00  1.00000000E+00
  1.58328112E-07  4.17194473E-03  4.04000563E-02  0.00000000E+00  0.00000000E+00
  1.02374473E-02  0.00000000E+00  0.00000000E+00  9.97669115E-02  2.20697300E-02
  0.00000000E+00  0.00000000E+00  1.57292736E-22  0.00000000E+00  1.00000000E+00
  4.17194473E-03  8.38303122E-02  2.40141411E-01  0.00000000E+00  0.00000000E+00
  1.33026715E-01  0.00000000E+00  0.00000000E+00  4.67262845E-01  1.85878476E-01
  0.00000000E+00  0.00000000E+00  1.40703316E-18  0.00000000E+00  2.14476014E-01
  1.00000000E+00  4.04000563E-02  2.40141411E-01  4.55500616E-01  0.00000000E+00
  0.00000000E+00  1.93848444E-01  0.00000000E+00  0.00000000E+00  5.91004299E-01
  1.21304994E-01  0.00000000E+00  0.00000000E+00  7.87324500E-18  0.00000000E+00
  1.83816867E-01  7.92109402E-01  1.00000000E+00  0.00000000E+00  0.00000000E+00
  0.00000000E+00  4.04046522E-02  0.00000000E+00  0.00000000E+00  1.57696754E-01
  0.00000000E+00  0.00000000E+00  0.00000000E+00  1.03073367E-01  0.00000000E+00
  0.00000000E+00  0.00000000E+00  0.00000000E+00  0.00000000E+00  0.00000000E+00
  1.00000000E+00  0.00000000E+00  0.00000000E+00  0.00000000E+00  0.00000000E+00
  4.04046522E-02  0.00000000E+00  0.00000000E+00  1.57696754E-01  0.00000000E+00
  0.00000000E+00  0.00000000E+00  1.03073367E-01  0.00000000E+00  0.00000000E+00
  0.00000000E+00  0.00000000E+00  0.00000000E+00  0.00000000E+00  1.00000000E+00
 -1.02374473E-02 -1.33026715E-01 -1.93848444E-01  0.00000000E+00  0.00000000E+00
 -1.92893807E-01  0.00000000E+00  0.00000000E+00 -2.06411149E-01 -2.41333834E-01
  0.00000000E+00  0.00000000E+00 -6.20943583E-19  0.00000000E+00 -1.26372434E-16
 -3.35977035E-16  1.52560333E-17  0.00000000E+00  0.00000000E+00  1.00000000E+00
  0.00000000E+00  0.00000000E+00  0.00000000E+00  1.57696754E-01  0.00000000E+00
  0.00000000E+00  4.88642358E-01  0.00000000E+00  0.00000000E+00  0.00000000E+00
  1.58482654E-01  0.00000000E+00  0.00000000E+00  0.00000000E+00  0.00000000E+00
  0.00000000E+00  0.00000000E+00  5.01271483E-01  0.00000000E+00  0.00000000E+00
  1.00000000E+00  0.00000000E+00  0.00000000E+00  0.00000000E+00  0.00000000E+00
  1.57696754E-01  0.00000000E+00  0.00000000E+00  4.88642358E-01  0.00000000E+00
  0.00000000E+00  0.00000000E+00  1.58482654E-01  0.00000000E+00  0.00000000E+00
  0.00000000E+00  0.00000000E+00  0.00000000E+00  0.00000000E+00  5.01271483E-01
  0.00000000E+00  0.00000000E+00  1.00000000E+00 -9.97669115E-02 -4.67262845E-01
 -5.91004299E-01  0.00000000E+00  0.00000000E+00 -2.06411149E-01  0.00000000E+00
  0.00000000E+00 -2.11215103E-01 -2.96893982E-02  0.00000000E+00  0.00000000E+00
 -9.74463594E-19  0.00000000E+00  3.46008462E-17 -2.01991153E-16  0.00000000E+00
  0.00000000E+00  0.00000000E+00  5.01271483E-01  0.00000000E+00  0.00000000E+00
  1.00000000E+00  2.20697300E-02  1.85878476E-01  1.21304994E-01  0.00000000E+00
  0.00000000E+00  2.41333834E-01  0.00000000E+00  0.00000000E+00  2.96893982E-02
  2.49810046E-01  0.00000000E+00  0.00000000E+00  2.00370345E-18  0.00000000E+00
  0.00000000E+00  0.00000000E+00  0.00000000E+00  0.00000000E+00  0.00000000E+00
  5.35127304E-16  0.00000000E+00  0.00000000E+00 -3.02116360E-16  1.00000000E+00
  0.00000000E+00  0.00000000E+00  0.00000000E+00 -1.03073367E-01  0.00000000E+00
  0.00000000E+00 -1.58482654E-01  0.00000000E+00  0.00000000E+00  0.00000000E+00
 -2.36789382E-01  0.00000000E+00  0.00000000E+00  0.00000000E+00  0.00000000E+00
  0.00000000E+00  0.00000000E+00  4.63433840E-16  0.00000000E+00  0.00000000E+00
 -2.61640442E-16  0.00000000E+00  0.00000000E+00  0.00000000E+00  1.00000000E+00
  0.00000000E+00  0.00000000E+00  0.00000000E+00  0.00000000E+00 -1.03073367E-01
  0.00000000E+00  0.00000000E+00 -1.58482654E-01  0.00000000E+00  0.00000000E+00
  0.00000000E+00 -2.36789382E-01  0.00000000E+00  0.00000000E+00  0.00000000E+00
  0.00000000E+00  0.00000000E+00  0.00000000E+00  4.63433840E-16  0.00000000E+00
  0.00000000E+00 -2.61640442E-16  0.00000000E+00  0.00000000E+00  0.00000000E+00
  1.00000000E+00 -3.21337399E-21  1.40703316E-18  7.87324500E-18  0.00000000E+00
  0.00000000E+00 -2.59940829E-18  0.00000000E+00  0.00000000E+00  9.74463594E-19
 -9.61157088E-19  0.00000000E+00  0.00000000E+00  4.58453012E-02  0.00000000E+00
  2.95546284E-18  3.53361838E-17  4.56638999E-17  0.00000000E+00  0.00000000E+00
 -3.42755749E-35  0.00000000E+00  0.00000000E+00 -5.69926860E-33  2.47902802E-17
  0.00000000E+00  0.00000000E+00  1.00000000E+00  0.00000000E+00  0.00000000E+00
  0.00000000E+00  0.00000000E+00  0.00000000E+00  0.00000000E+00  0.00000000E+00
  0.00000000E+00  0.00000000E+00  0.00000000E+00  0.00000000E+00  0.00000000E+00
  0.00000000E+00  4.58453012E-02  0.00000000E+00  0.00000000E+00  0.00000000E+00
  0.00000000E+00  0.00000000E+00  0.00000000E+00  0.00000000E+00  0.00000000E+00
  0.00000000E+00  0.00000000E+00  0.00000000E+00  0.00000000E+00  0.00000000E+00
  1.00000000E+00
Core Hamiltonian Matrix                    R   N=         406
 -3.54464181E+01 -7.12832059E+00 -1.21233284E+01 -6.28156824E+00 -9.54962669E+00
 -1.00304347E+01  0.00000000E+00  0.00000000E+00  0.00000000E+00 -1.08008065E+01
  0.00000000E+00  0.00000000E+00  0.00000000E+00  0.00000000E+00 -1.08008065E+01
 -1.15736926E-01 -7.56359090E-01 -7.50383337E-01  0.00000000E+00  0.00000000E+00
 -1.11447207E+01  0.00000000E+00  0.00000000E+00  0.00000000E+00 -4.89664735E+00
  0.00000000E+00  0.00000000E+00 -6.69078552E+00  0.00000000E+00  0.00000000E+00
  0.00000000E+00  0.00000000E+00 -4.89664735E+00  0.00000000E+00  0.00000000E+00
 -6.69078552E+00 -1.67884417E-02 -5.02720327E-01 -1.23959640E+00  0.00000000E+00
  0.00000000E+00 -5.24261697E+00  0.00000000E+00  0.00000000E+00 -7.91493508E+00
 -8.10138452E-03 -3.10039656E-01 -4.47821458E-01  0.00000000E+00  0.00000000E+00
 -8.55767622E-01  0.00000000E+00  0.00000000E+00 -9.16824585E-01 -7.15919792E+00
  0.00000000E+00  0.00000000E+00  0.00000000E+00 -5.52044748E-01  0.00000000E+00
  0.00000000E+00 -4.98048896E-01  0.00000000E+00  0.00000000E+00  0.00000000E+00
 -6.84461477E+00  0.00000000E+00  0.00000000E+00  0.00000000E+00  0.00000000E+00
 -5.52044748E-01  0.00000000E+00  0.00000000E+00 -4.98048896E-01  0.00000000E+00
  0.00000000E+00  0.00000000E+00 -6.84461477E+00  6.36392492E-17  8.85072529E-17
 -7.93154433E-17  0.00000000E+00  0.00000000E+00 -1.23940712E-17  0.00000000E+00
  0.00000000E+00  1.19849585E-17 -2.38978548E-16  0.00000000E+00  0.00000000E+00
 -6.50443201E+00  0.00000000E+00  0.00000000E+00  0.00000000E+00  0.00000000E+00
  0.00000000E+00  0.00000000E+00  0.00000000E+00  0.00000000E+00  0.00000000E+00
  0.00000000E+00  0.00000000E+00  0.00000000E+00  0.00000000E+00 -6.50443201E+00
 -1.15148562E-05 -1.46376185E-01 -1.38749446E+00  0.00000000E+00  0.00000000E+00
 -3.56662236E-01  0.00000000E+00  0.00000000E+00 -3.41762636E+00 -7.66153537E-01
  0.00000000E+00  0.00000000E+00 -3.58882984E-19  0.00000000E+00 -3.54464181E+01
 -1.46376185E-01 -1.20362222E+00 -3.08041157E+00  0.00000000E+00  0.00000000E+00
 -1.83142889E+00  0.00000000E+00  0.00000000E+00 -5.78611913E+00 -2.42321996E+00
  0.00000000E+00  0.00000000E+00  6.10977723E-19  0.00000000E+00 -7.12832059E+00
 -1.21233284E+01 -1.38749446E+00 -3.08041157E+00 -4.95139974E+00  0.00000000E+00
  0.00000000E+00 -2.45882580E+00  0.00000000E+00  0.00000000E+00 -6.15235717E+00
 -1.73529606E+00  0.00000000E+00  0.00000000E+00 -7.95977337E-17  0.00000000E+00
 -6.28156824E+00 -9.54962669E+00 -1.00304347E+01  0.00000000E+00  0.00000000E+00
  0.00000000E+00 -5.03875636E-01  0.00000000E+00  0.00000000E+00 -1.64255239E+00
  0.00000000E+00  0.00000000E+00  0.00000000E+00 -1.18196458E+00  0.00000000E+00
  0.00000000E+00  0.00000000E+00  0.00000000E+00  0.00000000E+00  0.00000000E+00
 -1.08008065E+01  0.00000000E+00  0.00000000E+00  0.00000000E+00  0.00000000E+00
 -5.03875636E-01  0.00000000E+00  0.00000000E+00 -1.64255239E+00  0.00000000E+00
  0.00000000E+00  0.00000000E+00 -1.18196458E+00  0.00000000E+00  0.00000000E+00
  0.00000000E+00  0.00000000E+00  0.00000000E+00  0.00000000E+00 -1.08008065E+01
  3.56662236E-01  1.83142889E+00  2.45882580E+00  0.00000000E+00  0.00000000E+00
  2.51328851E+00  0.00000000E+00  0.00000000E+00  2.60176609E+00  2.89417297E+00
  0.00000000E+00  0.00000000E+00 -3.72660478E-17  0.00000000E+00  1.15736926E-01
  7.56359090E-01  7.50383337E-01  0.00000000E+00  0.00000000E+00 -1.11447207E+01
  0.00000000E+00  0.00000000E+00  0.00000000E+00 -1.64255239E+00  0.00000000E+00
  0.00000000E+00 -3.58357854E+00  0.00000000E+00  0.00000000E+00  0.00000000E+00
 -1.54670963E+00  0.00000000E+00  0.00000000E+00  0.00000000E+00  0.00000000E+00
  0.00000000E+00  0.00000000E+00 -4.89664735E+00  0.00000000E+00  0.00000000E+00
 -6.69078552E+00  0.00000000E+00  0.00000000E+00  0.00000000E+00  0.00000000E+00
 -1.64255239E+00  0.00000000E+00  0.00000000E+00 -3.58357854E+00  0.00000000E+00
  0.00000000E+00  0.00000000E+00 -1.54670963E+00  0.00000000E+00  0.00000000E+00
  0.00000000E+00  0.00000000E+00  0.00000000E+00  0.00000000E+00 -4.89664735E+00
  0.00000000E+00  0.00000000E+00 -6.69078552E+00  3.41762636E+00  5.78611913E+00
  6.15235717E+00  0.00000000E+00  0.00000000E+00  2.60176609E+00  0.00000000E+00
  0.00000000E+00  2.28877715E+00  7.75839455E-01  0.00000000E+00  0.00000000E+00
 -3.03856915E-17  0.00000000E+00  1.67884417E-02  5.02720327E-01  1.23959640E+00
  0.00000000E+00  0.00000000E+00 -5.24261697E+00  0.00000000E+00  0.00000000E+00
 -7.91493508E+00 -7.66153537E-01 -2.42321996E+00 -1.73529606E+00  0.00000000E+00
  0.00000000E+00 -2.89417297E+00  0.00000000E+00  0.00000000E+00 -7.75839455E-01
 -2.40809346E+00  0.00000000E+00  0.00000000E+00 -1.99845655E-17  0.00000000E+00
 -8.10138452E-03 -3.10039656E-01 -4.47821458E-01  0.00000000E+00  0.00000000E+00
  8.55767622E-01  0.00000000E+00  0.00000000E+00  9.16824585E-01 -7.15919792E+00
  0.00000000E+00  0.00000000E+00  0.00000000E+00  1.18196458E+00  0.00000000E+00
  0.00000000E+00  1.54670963E+00  0.00000000E+00  0.00000000E+00  0.00000000E+00
  2.30088319E+00  0.00000000E+00  0.00000000E+00  0.00000000E+00  0.00000000E+00
  0.00000000E+00  0.00000000E+00  5.52044748E-01  0.00000000E+00  0.00000000E+00
  4.98048896E-01  0.00000000E+00  0.00000000E+00  0.00000000E+00 -6.84461477E+00
  0.00000000E+00  0.00000000E+00  0.00000000E+00  0.00000000E+00  1.18196458E+00
  0.00000000E+00  0.00000000E+00  1.54670963E+00  0.00000000E+00  0.00000000E+00
  0.00000000E+00  2.30088319E+00  0.00000000E+00  0.00000000E+00  0.00000000E+00
  0.00000000E+00  0.00000000E+00  0.00000000E+00  5.52044748E-01  0.00000000E+00
  0.00000000E+00  4.98048896E-01  0.00000000E+00  0.00000000E+00  0.00000000E+00
 -6.84461477E+00 -3.58882984E-19  6.10977723E-19 -7.95977337E-17  0.00000000E+00
  0.00000000E+00  3.72660478E-17  0.00000000E+00  0.00000000E+00  3.03856915E-17
  8.75055927E-18  0.00000000E+00  0.00000000E+00 -4.61157235E-01  0.00000000E+00
  6.36392492E-17  8.85072529E-17 -7.93154433E-17  0.00000000E+00  0.00000000E+00
  1.23940712E-17  0.00000000E+00  0.00000000E+00 -1.19849585E-17 -1.79481875E-16
  0.00000000E+00  0.00000000E+00 -6.50443201E+00  0.00000000E+00  0.00000000E+00
  0.00000000E+00  0.00000000E+00  0.00000000E+00  0.00000000E+00  0.00000000E+00
  0.00000000E+00  0.00000000E+00  0.00000000E+00  0.00000000E+00  0.00000000E+00
  0.00000000E+00 -4.61157235E-01  0.00000000E+00  0.00000000E+00  0.00000000E+00
  0.00000000E+00  0.00000000E+00  0.00000000E+00  0.00000000E+00  0.00000000E+00
  0.00000000E+00  0.00000000E+00  0.00000000E+00  0.00000000E+00  0.00000000E+00
 -6.50443201E+00
Localized Alpha MO Coefficients (IBO)      R   N=         252
 -7.85434973E-01 -1.31472506E-01 -1.57919356E-01  1.76416177E-01  2.67071971E-01
  9.48129102E-02  1.22538057E-01  1.85505861E-01  5.12584755E-02  5.31370981E-03
  5.06392133E-03  7.66608545E-03  7.03075846E-08 -1.15161121E-08 -6.63713721E-03
  2.31104816E-02  1.61671773E-02 -1.58838261E-02 -2.40454179E-02 -4.11351688E-02
 -2.03150113E-02 -3.07547742E-02 -2.85248436E-02  1.64312328E-03 -6.86690113E-03
 -1.03957050E-02 -7.56894786E-09  1.23977439E-09  3.66223725E-01 -4.29920644E-01
 -5.54683005E-01 -1.63269853E-01 -1.00896005E-01  2.70086136E-01 -1.13406734E-01
 -7.00814405E-02  1.44181761E-01  1.26759712E-02 -4.68656667E-03 -2.89613663E-03
  2.24153144E-07 -3.67152779E-08 -1.42600491E-02  4.99525342E-02  5.32325522E-02
  1.47002162E-02  9.08399566E-03 -8.24794453E-02  1.88011418E-02  1.16187304E-02
 -7.34188084E-02 -1.33695580E-03  6.35518408E-03  3.92735250E-03 -8.95853968E-09
  1.46736985E-09  2.23055134E-01  1.61945921E-02  1.78047038E-02 -3.34597787E-01
  5.84306657E-01 -1.33986255E-02 -2.32410949E-01  4.05854637E-01 -7.32261305E-03
 -8.56826591E-04 -9.60445061E-03  1.67720646E-02 -8.90810784E-09  1.45911949E-09
  1.13792833E-03 -3.94938768E-03 -1.97573116E-03  3.01261357E-02 -5.26073264E-02
  7.30652540E-03  3.85300991E-02 -6.72859613E-02  4.36836402E-03 -4.91197478E-04
  1.30240040E-02 -2.27439619E-02  1.61202971E-09 -2.64046971E-10 -3.82286097E-02
  2.03418800E-01  4.84372039E-02  4.42323985E-17 -4.55248825E-16  4.10367508E-01
  9.29673057E-17 -2.46516620E-16  1.82358966E-01  3.99747752E-02 -4.67586301E-16
 -1.42707036E-16 -1.52864990E-08  2.50355470E-09 -3.82286097E-02  2.03418800E-01
  4.84372039E-02  3.75949612E-16 -3.26445244E-16 -4.10367508E-01  3.74185476E-16
 -1.50128858E-16 -1.82358966E-01  3.99747752E-02 -5.42605613E-17 -7.05286957E-17
 -1.52864991E-08  2.50355465E-09 -4.90760796E-01  7.47502007E-02  1.02013615E-01
 -5.56259761E-01 -2.37153371E-01 -4.11448820E-02 -3.86376355E-01 -1.64724479E-01
 -2.16581916E-02 -1.51995051E-03 -1.59671166E-02 -6.80728875E-03 -3.81358208E-08
  6.24645484E-09  1.39609138E-03 -4.95671975E-03 -9.30867999E-03  5.00836048E-02
  2.13516497E-02  6.76797199E-03  6.40554038E-02  2.73095385E-02  9.87522317E-03
  1.20898857E-03  2.16520850E-02  9.23114181E-03 -7.40673695E-10  1.21326073E-10
 -6.86263151E-04  2.54840123E-03  1.14941475E-02 -4.28156307E-03  8.09000720E-03
  1.11993726E-03 -5.47594167E-03  1.03473040E-02  9.39214791E-03 -2.41477183E-03
  1.85098644E-03 -3.49758967E-03  3.09580190E-09 -5.07093906E-10  1.00939624E+00
 -9.18940554E-02 -1.30707309E-01  4.75534271E-02 -8.98552714E-02 -4.50524697E-02
  3.30305178E-02 -6.24127366E-02 -2.33825578E-02  1.21817360E-03 -1.36499583E-03
  2.57922506E-03  4.60857817E-08 -7.54859540E-09  1.55454710E-02 -5.43974446E-02
 -5.44513962E-02  4.34794744E-03  1.08565374E-02 -9.10561459E-02  5.56093490E-03
  1.38858072E-02 -7.76889546E-02  5.15540346E-04 -1.87971210E-03 -4.69367040E-03
  1.11794858E-08 -1.83115669E-09 -1.78507589E-03  4.40139390E-01  5.62999839E-01
 -4.82912744E-02 -1.20583261E-01  2.81586277E-01 -3.35429279E-02 -8.37560957E-02
  1.50588685E-01 -1.35748894E-02  1.38617140E-03  3.46124582E-03 -2.30212859E-07
  3.77078509E-08 -3.99477103E-04  1.41274079E-03  2.31892835E-03  5.98921758E-02
 -1.60118288E-02  2.04652829E-03  7.66000703E-02 -2.04792512E-02  2.59962826E-03
 -2.55248223E-04 -2.58924567E-02  6.92239502E-03  7.58496118E-11 -1.24252277E-11
  1.02158624E-01 -1.86415843E-02 -2.51767904E-02 -6.65198682E-01  1.77841044E-01
 -1.05363557E-02 -4.62045213E-01  1.23527197E-01 -5.56278256E-03  4.11452882E-04
  1.90941543E-02 -5.10479827E-03  9.55018065E-09 -1.56427220E-09  2.89004098E-03
 -1.00967622E-02 -9.12084824E-03 -1.61255903E-02 -5.86892968E-02 -1.72478267E-02
 -2.06243839E-02 -7.50651746E-02 -1.37857386E-02 -1.67859356E-04  6.97146863E-03
  2.53734770E-02  2.47406409E-09 -4.05243410E-10  1.10938400E-01  7.38371780E-02
  9.29970630E-02  1.79102349E-01  6.51860187E-01  4.87530715E-02  1.24403688E-01
  4.52776513E-01  2.61508835E-02 -2.45546263E-03 -5.14101921E-03 -1.87111254E-02
 -3.88383607E-08  6.36155803E-09
Localized Beta  MO Coefficients (IBO)      R   N=         252
 -7.85434973E-01 -1.31472506E-01 -1.57919356E-01  1.76416177E-01  2.67071971E-01
  9.48129102E-02  1.22538057E-01  1.85505861E-01  5.12584755E-02  5.31370981E-03
  5.06392133E-03  7.66608545E-03  7.03075846E-08 -1.15161121E-08 -6.63713721E-03
  2.31104816E-02  1.61671773E-02 -1.58838261E-02 -2.40454179E-02 -4.11351688E-02
 -2.03150113E-02 -3.07547742E-02 -2.85248436E-02  1.64312328E-03 -6.86690113E-03
 -1.03957050E-02 -7.56894786E-09  1.23977439E-09  3.66223725E-01 -4.29920644E-01
 -5.54683005E-01 -1.63269853E-01 -1.00896005E-01  2.70086136E-01 -1.13406734E-01
 -7.00814405E-02  1.44181761E-01  1.26759712E-02 -4.68656667E-03 -2.89613663E-03
  2.24153144E-07 -3.67152779E-08 -1.42600491E-02  4.99525342E-02  5.32325522E-02
  1.47002162E-02  9.08399566E-03 -8.24794453E-02  1.88011418E-02  1.16187304E-02
 -7.34188084E-02 -1.33695580E-03  6.35518408E-03  3.92735250E-03 -8.95853968E-09
  1.46736985E-09  2.23055134E-01  1.61945921E-02  1.78047038E-02 -3.34597787E-01
  5.84306657E-01 -1.33986255E-02 -2.32410949E-01  4.05854637E-01 -7.32261305E-03
 -8.56826591E-04 -9.60445061E-03  1.67720646E-02 -8.90810784E-09  1.45911949E-09
  1.13792833E-03 -3.94938768E-03 -1.97573116E-03  3.01261357E-02 -5.26073264E-02
  7.30652540E-03  3.85300991E-02 -6.72859613E-02  4.36836402E-03 -4.91197478E-04
  1.30240040E-02 -2.27439619E-02  1.61202971E-09 -2.64046971E-10 -3.82286097E-02
  2.03418800E-01  4.84372039E-02  4.42323985E-17 -4.55248825E-16  4.10367508E-01
  9.29673057E-17 -2.46516620E-16  1.82358966E-01  3.99747752E-02 -4.67586301E-16
 -1.42707036E-16 -1.52864990E-08  2.50355470E-09 -3.82286097E-02  2.03418800E-01
  4.84372039E-02  3.75949612E-16 -3.26445244E-16 -4.10367508E-01  3.74185476E-16
 -1.50128858E-16 -1.82358966E-01  3.99747752E-02 -5.42605613E-17 -7.05286957E-17
 -1.52864991E-08  2.50355465E-09 -4.90760796E-01  7.47502007E-02  1.02013615E-01
 -5.56259761E-01 -2.37153371E-01 -4.11448820E-02 -3.86376355E-01 -1.64724479E-01
 -2.16581916E-02 -1.51995051E-03 -1.59671166E-02 -6.80728875E-03 -3.81358208E-08
  6.24645484E-09  1.39609138E-03 -4.95671975E-03 -9.30867999E-03  5.00836048E-02
  2.13516497E-02  6.76797199E-03  6.40554038E-02  2.73095385E-02  9.87522317E-03
  1.20898857E-03  2.16520850E-02  9.23114181E-03 -7.40673695E-10  1.21326073E-10
 -6.86263151E-04  2.54840123E-03  1.14941475E-02 -4.28156307E-03  8.09000720E-03
  1.11993726E-03 -5.47594167E-03  1.03473040E-02  9.39214791E-03 -2.41477183E-03
  1.85098644E-03 -3.49758967E-03  3.09580190E-09 -5.07093906E-10  1.00939624E+00
 -9.18940554E-02 -1.30707309E-01  4.75534271E-02 -8.98552714E-02 -4.50524697E-02
  3.30305178E-02 -6.24127366E-02 -2.33825578E-02  1.21817360E-03 -1.36499583E-03
  2.57922506E-03  4.60857817E-08 -7.54859540E-09  1.55454710E-02 -5.43974446E-02
 -5.44513962E-02  4.34794744E-03  1.08565374E-02 -9.10561459E-02  5.56093490E-03
  1.38858072E-02 -7.76889546E-02  5.15540346E-04 -1.87971210E-03 -4.69367040E-03
  1.11794858E-08 -1.83115669E-09 -1.78507589E-03  4.40139390E-01  5.62999839E-01
 -4.82912744E-02 -1.20583261E-01  2.81586277E-01 -3.35429279E-02 -8.37560957E-02
  1.50588685E-01 -1.35748894E-02  1.38617140E-03  3.46124582E-03 -2.30212859E-07
  3.77078509E-08 -3.99477103E-04  1.41274079E-03  2.31892835E-03  5.98921758E-02
 -1.60118288E-02  2.04652829E-03  7.66000703E-02 -2.04792512E-02  2.59962826E-03
 -2.55248223E-04 -2.58924567E-02  6.92239502E-03  7.58496118E-11 -1.24252277E-11
  1.02158624E-01 -1.86415843E-02 -2.51767904E-02 -6.65198682E-01  1.77841044E-01
 -1.05363557E-02 -4.62045213E-01  1.23527197E-01 -5.56278256E-03  4.11452882E-04
  1.90941543E-02 -5.10479827E-03  9.55018065E-09 -1.56427220E-09  2.89004098E-03
 -1.00967622E-02 -9.12084824E-03 -1.61255903E-02 -5.86892968E-02 -1.72478267E-02
 -2.06243839E-02 -7.50651746E-02 -1.37857386E-02 -1.67859356E-04  6.97146863E-03
  2.53734770E-02  2.47406409E-09 -4.05243410E-10  1.10938400E-01  7.38371780E-02
  9.29970630E-02  1.79102349E-01  6.51860187E-01  4.87530715E-02  1.24403688E-01
  4.52776513E-01  2.61508835E-02 -2.45546263E-03 -5.14101921E-03 -1.87111254E-02
 -3.88383607E-08  6.36155803E-09
Localized Alpha MO Coefficients (OSLO)     R   N=         252
 -1.00317401E+00 -6.38583286E-04  1.98085768E-02 -5.68181591E-16 -1.52468887E-15
 -5.10492649E-03 -4.54043288E-17 -7.81552076E-16 -7.01579964E-04 -1.45861535E-05
 -1.72991615E-16 -2.67985592E-15 -9.27908442E-10  1.51947609E-10 -3.13860831E-04
  7.02943832E-04 -2.70906480E-03  4.23665821E-17 -6.45215283E-16 -1.89594799E-03
  3.80506538E-18  1.83535517E-15  8.30961542E-04  8.85648030E-04  5.73929820E-16
 -2.08112361E-15 -4.67987936E-09  7.66570211E-10 -1.94429850E-15  1.68410658E-15
  2.75413020E-15  5.61338598E-02  6.89936550E-01  4.36620492E-16  3.89901042E-02
  4.79224091E-01  4.70197550E-16  2.84317971E-16  1.61127776E-03  1.98040795E-02
  1.67153219E-16 -6.88850361E-16 -3.11268822E-16  2.05175218E-16 -6.37823912E-16
 -5.05393406E-03 -6.21174785E-02 -4.26433585E-16 -6.46411171E-03 -7.94498535E-02
  3.07442229E-16  2.82907231E-16 -2.18499465E-03 -2.68555855E-02  3.92061295E-18
 -1.13798425E-16  8.94385879E-17 -2.85010926E-15  2.92310177E-15  6.89934275E-01
 -5.61336747E-02 -9.77269544E-16  4.79226430E-01 -3.89902945E-02  3.57302355E-15
  6.34699310E-16  1.98041731E-02 -1.61128538E-03  7.56507593E-17 -4.33524881E-17
  3.78480939E-16  1.08978361E-15 -5.99562728E-15 -6.21192528E-02  5.05407841E-03
  1.35151311E-15 -7.94484812E-02  6.46400007E-03  3.58670369E-15 -1.64824176E-15
 -2.68552780E-02  2.18496964E-03  1.95422592E-17 -3.99032704E-16 -3.13860831E-04
  7.02943832E-04 -2.70906480E-03 -4.19138805E-17 -2.82830685E-16  1.89594799E-03
  9.58906065E-17  2.38039289E-17 -8.30961542E-04  8.85648030E-04  2.26320540E-16
 -1.20102130E-15 -4.67987957E-09  7.66570850E-10 -1.00317401E+00 -6.38583286E-04
  1.98085768E-02 -8.30773561E-16 -1.69736107E-16  5.10492649E-03 -1.04834948E-16
  3.56682527E-16  7.01579964E-04 -1.45861535E-05  2.46898574E-17 -1.10726547E-15
 -9.27907925E-10  1.51945945E-10  5.25017582E-16 -7.74624010E-16  4.23861181E-16
 -5.05393406E-03 -6.21174785E-02 -1.59036630E-15 -6.46411172E-03 -7.94498535E-02
  8.75221353E-16  6.77131680E-17  2.18499465E-03  2.68555855E-02  1.15537848E-16
  2.15288024E-16  5.30338664E-16 -1.22621450E-15 -2.44935016E-15  5.61338599E-02
  6.89936550E-01  9.41372118E-16  3.89901042E-02  4.79224091E-01 -3.51727135E-16
 -4.69137607E-16 -1.61127776E-03 -1.98040795E-02 -1.81717596E-17  7.10495064E-17
 -3.60539552E-17  1.32772598E-15 -6.41937032E-15  6.21192528E-02 -5.05407842E-03
  1.60466286E-15  7.94484812E-02 -6.46400008E-03 -4.23373262E-15  1.87724224E-16
 -2.68552780E-02  2.18496964E-03  5.91867526E-18 -3.45457510E-17  5.52843782E-16
 -1.10868878E-15  5.98662027E-15 -6.89934275E-01  5.61336747E-02 -1.64641161E-15
 -4.79226430E-01  3.89902945E-02 -7.21054689E-15  4.17360570E-17  1.98041731E-02
 -1.61128538E-03 -2.66355964E-17 -4.14524677E-17  1.90464877E-01 -4.95055363E-01
 -5.79607566E-01 -2.32717817E-15  3.27728092E-15  1.68278241E-01 -2.12975749E-15
  1.50451498E-15  9.85135379E-02  2.83996175E-03 -3.86332933E-16  7.48983313E-16
  2.34133500E-07 -3.83499458E-08 -1.96987412E-03  1.57590262E-02  6.23771069E-02
 -4.90253693E-16 -6.61516609E-16  2.98314352E-02  7.68290322E-17 -5.73323272E-16
 -2.32024322E-02 -1.18775686E-02  6.54911767E-16  1.95277115E-16 -1.46652229E-08
  2.40218265E-09 -1.96987412E-03  1.57590262E-02  6.23771069E-02 -5.50983921E-16
  5.48564515E-16 -2.98314352E-02 -4.64721143E-16  5.81449549E-16  2.32024322E-02
 -1.18775686E-02 -1.04248081E-16  7.51871975E-17 -1.46652226E-08  2.40218233E-09
  1.90464877E-01 -4.95055363E-01 -5.79607566E-01  4.56325092E-16 -2.14978375E-15
 -1.68278241E-01  3.17994475E-16 -1.37940479E-15 -9.85135379E-02  2.83996175E-03
  6.81933092E-16 -3.05381585E-16  2.34133501E-07 -3.83499456E-08 -2.64723745E-02
  8.41801679E-02 -9.29074326E-02  1.80413014E-15 -1.19084309E-15  4.81214028E-01
  1.01060309E-15 -9.91874167E-16  2.30801733E-01  4.05734696E-02 -4.48647493E-16
 -2.57676292E-17  4.51611067E-08 -7.39747224E-09 -2.64723745E-02  8.41801679E-02
 -9.29074326E-02  2.72786647E-15  1.20404986E-15 -4.81214028E-01  2.00783213E-15
  1.08377643E-15 -2.30801733E-01  4.05734696E-02  1.44860053E-16 -2.35445656E-16
  4.51611067E-08 -7.39747224E-09
Localized Beta  MO Coefficients (OSLO)     R   N=         196
 -1.00317401E+00 -6.38583286E-04  1.98085768E-02 -5.38360590E-16 -4.36092233E-15
 -5.10492649E-03 -2.90127046E-17 -2.79341773E-15 -7.01579964E-04 -1.45861535E-05
 -1.68854852E-16 -2.74015943E-15 -9.27908442E-10  1.51947609E-10 -3.13860831E-04
  7.02943832E-04 -2.70906480E-03  1.33486437E-16  1.60456333E-16 -1.89594799E-03
  5.53246514E-17  2.53326671E-15  8.30961542E-04  8.85648030E-04  5.69934257E-16