Jobname.Temp
SP        R                             cc-pVTZ             
Number of atoms                            I               12
Charge                                     I                0
Multiplicity                               I                1
Number of electrons                        I               42
Number of alpha electrons                  I               21
Number of beta electrons                   I               21
Atomic numbers                             I   N=          12
           6           6           6           6           6           6
           1           1           1           1           1           1
Current cartesian coordinates              R   N=          36
  2.63256991E+00  0.00000000E+00  0.00000000E+00  1.31628495E+00  2.27987331E+00
  1.39601978E-16 -1.31628495E+00  2.27987331E+00  1.39601978E-16 -2.63256991E+00
  0.00000000E+00  0.00000000E+00 -1.31628495E+00 -2.27987331E+00 -1.39601978E-16
  1.31628495E+00 -2.27987331E+00 -1.39601978E-16  4.69242996E+00  0.00000000E+00
  0.00000000E+00  2.34622538E+00  4.06376155E+00  2.48833628E-16 -2.34622538E+00
  4.06376155E+00  2.48833628E-16 -4.69242996E+00  0.00000000E+00  0.00000000E+00
 -2.34622538E+00 -4.06376155E+00 -2.48833628E-16  2.34622538E+00 -4.06376155E+00
 -2.48833628E-16
Nuclear charges                            R   N=          12
  6.00000000E+00  6.00000000E+00  6.00000000E+00  6.00000000E+00  6.00000000E+00
  6.00000000E+00  1.00000000E+00  1.00000000E+00  1.00000000E+00  1.00000000E+00
  1.00000000E+00  1.00000000E+00
Number of basis functions                  I              264
Number of contracted shells                I               96
Number of primitive shells                 I              192
Highest angular momentum                   I                3
Largest degree of contraction              I                7
Shell types                                I   N=          96
           0           0           0           0           1           1
           1          -2          -2          -3           0           0
           0           0           1           1           1          -2
          -2          -3           0           0           0           0
           1           1           1          -2          -2          -3
           0           0           0           0           1           1
           1          -2          -2          -3           0           0
           0           0           1           1           1          -2
          -2          -3           0           0           0           0
           1           1           1          -2          -2          -3
           0           0           0           1           1          -2
           0           0           0           1           1          -2
           0           0           0           1           1          -2
           0           0           0           1           1          -2
           0           0           0           1           1          -2
           0           0           0           1           1          -2
Number of primitives per shell             I   N=          96
           7           7           1           1           3           1
           1           1           1           1           7           7
           1           1           3           1           1           1
           1           1           7           7           1           1
           3           1           1           1           1           1
           7           7           1           1           3           1
           1           1           1           1           7           7
           1           1           3           1           1           1
           1           1           7           7           1           1
           3           1           1           1           1           1
           3           1           1           1           1           1
           3           1           1           1           1           1
           3           1           1           1           1           1
           3           1           1           1           1           1
           3           1           1           1           1           1
           3           1           1           1           1           1
Shell to atom map                          I   N=          96
           1           1           1           1           1           1
           1           1           1           1           2           2
           2           2           2           2           2           2
           2           2           3           3           3           3
           3           3           3           3           3           3
           4           4           4           4           4           4
           4           4           4           4           5           5
           5           5           5           5           5           5
           5           5           6           6           6           6
           6           6           6           6           6           6
           7           7           7           7           7           7
           8           8           8           8           8           8
           9           9           9           9           9           9
          10          10          10          10          10          10
          11          11          11          11          11          11
          12          12          12          12          12          12
Primitive exponents                        R   N=         192
  8.23600000E+03  1.23500000E+03  2.80800000E+02  7.92700000E+01  2.55900000E+01
  8.99700000E+00  3.31900000E+00  8.23600000E+03  1.23500000E+03  7.92700000E+01
  2.55900000E+01  8.99700000E+00  3.31900000E+00  3.64300000E-01  9.05900000E-01
  1.28500000E-01  1.87100000E+01  4.13300000E+00  1.20000000E+00  3.82700000E-01
  1.20900000E-01  1.09700000E+00  3.18000000E-01  7.61000000E-01  8.23600000E+03
  1.23500000E+03  2.80800000E+02  7.92700000E+01  2.55900000E+01  8.99700000E+00
  3.31900000E+00  8.23600000E+03  1.23500000E+03  7.92700000E+01  2.55900000E+01
  8.99700000E+00  3.31900000E+00  3.64300000E-01  9.05900000E-01  1.28500000E-01
  1.87100000E+01  4.13300000E+00  1.20000000E+00  3.82700000E-01  1.20900000E-01
  1.09700000E+00  3.18000000E-01  7.61000000E-01  8.23600000E+03  1.23500000E+03
  2.80800000E+02  7.92700000E+01  2.55900000E+01  8.99700000E+00  3.31900000E+00
  8.23600000E+03  1.23500000E+03  7.92700000E+01  2.55900000E+01  8.99700000E+00
  3.31900000E+00  3.64300000E-01  9.05900000E-01  1.28500000E-01  1.87100000E+01
  4.13300000E+00  1.20000000E+00  3.82700000E-01  1.20900000E-01  1.09700000E+00
  3.18000000E-01  7.61000000E-01  8.23600000E+03  1.23500000E+03  2.80800000E+02
  7.92700000E+01  2.55900000E+01  8.99700000E+00  3.31900000E+00  8.23600000E+03
  1.23500000E+03  7.92700000E+01  2.55900000E+01  8.99700000E+00  3.31900000E+00
  3.64300000E-01  9.05900000E-01  1.28500000E-01  1.87100000E+01  4.13300000E+00
  1.20000000E+00  3.82700000E-01  1.20900000E-01  1.09700000E+00  3.18000000E-01
  7.61000000E-01  8.23600000E+03  1.23500000E+03  2.80800000E+02  7.92700000E+01
  2.55900000E+01  8.99700000E+00  3.31900000E+00  8.23600000E+03  1.23500000E+03
  7.92700000E+01  2.55900000E+01  8.99700000E+00  3.31900000E+00  3.64300000E-01
  9.05900000E-01  1.28500000E-01  1.87100000E+01  4.13300000E+00  1.20000000E+00
  3.82700000E-01  1.20900000E-01  1.09700000E+00  3.18000000E-01  7.61000000E-01
  8.23600000E+03  1.23500000E+03  2.80800000E+02  7.92700000E+01  2.55900000E+01
  8.99700000E+00  3.31900000E+00  8.23600000E+03  1.23500000E+03  7.92700000E+01
  2.55900000E+01  8.99700000E+00  3.31900000E+00  3.64300000E-01  9.05900000E-01
  1.28500000E-01  1.87100000E+01  4.13300000E+00  1.20000000E+00  3.82700000E-01
  1.20900000E-01  1.09700000E+00  3.18000000E-01  7.61000000E-01  3.38700000E+01
  5.09500000E+00  1.15900000E+00  3.25800000E-01  1.02700000E-01  1.40700000E+00
  3.88000000E-01  1.05700000E+00  3.38700000E+01  5.09500000E+00  1.15900000E+00
  3.25800000E-01  1.02700000E-01  1.40700000E+00  3.88000000E-01  1.05700000E+00
  3.38700000E+01  5.09500000E+00  1.15900000E+00  3.25800000E-01  1.02700000E-01
  1.40700000E+00  3.88000000E-01  1.05700000E+00  3.38700000E+01  5.09500000E+00
  1.15900000E+00  3.25800000E-01  1.02700000E-01  1.40700000E+00  3.88000000E-01
  1.05700000E+00  3.38700000E+01  5.09500000E+00  1.15900000E+00  3.25800000E-01
  1.02700000E-01  1.40700000E+00  3.88000000E-01  1.05700000E+00  3.38700000E+01
  5.09500000E+00  1.15900000E+00  3.25800000E-01  1.02700000E-01  1.40700000E+00
  3.88000000E-01  1.05700000E+00
Contraction coefficients                   R   N=         192
  5.41973471E-04  4.19287723E-03  2.15221634E-02  8.35343195E-02  2.39582841E-01
  4.42852844E-01  3.51799564E-01  2.37232194E-06  1.15889290E-05 -9.16984233E-04
 -9.35416084E-03 -5.99779840E-02 -1.72247547E-01  1.07260475E+00  1.00000000E+00
  1.00000000E+00  3.94263872E-02  2.44088985E-01  8.15492009E-01  1.00000000E+00
  1.00000000E+00  1.00000000E+00  1.00000000E+00  1.00000000E+00  5.41973471E-04
  4.19287723E-03  2.15221634E-02  8.35343195E-02  2.39582841E-01  4.42852844E-01
  3.51799564E-01  2.37232194E-06  1.15889290E-05 -9.16984233E-04 -9.35416084E-03
 -5.99779840E-02 -1.72247547E-01  1.07260475E+00  1.00000000E+00  1.00000000E+00
  3.94263872E-02  2.44088985E-01  8.15492009E-01  1.00000000E+00  1.00000000E+00
  1.00000000E+00  1.00000000E+00  1.00000000E+00  5.41973471E-04  4.19287723E-03
  2.15221634E-02  8.35343195E-02  2.39582841E-01  4.42852844E-01  3.51799564E-01
  2.37232194E-06  1.15889290E-05 -9.16984233E-04 -9.35416084E-03 -5.99779840E-02
 -1.72247547E-01  1.07260475E+00  1.00000000E+00  1.00000000E+00  3.94263872E-02
  2.44088985E-01  8.15492009E-01  1.00000000E+00  1.00000000E+00  1.00000000E+00
  1.00000000E+00  1.00000000E+00  5.41973471E-04  4.19287723E-03  2.15221634E-02
  8.35343195E-02  2.39582841E-01  4.42852844E-01  3.51799564E-01  2.37232194E-06
  1.15889290E-05 -9.16984233E-04 -9.35416084E-03 -5.99779840E-02 -1.72247547E-01
  1.07260475E+00  1.00000000E+00  1.00000000E+00  3.94263872E-02  2.44088985E-01
  8.15492009E-01  1.00000000E+00  1.00000000E+00  1.00000000E+00  1.00000000E+00
  1.00000000E+00  5.41973471E-04  4.19287723E-03  2.15221634E-02  8.35343195E-02
  2.39582841E-01  4.42852844E-01  3.51799564E-01  2.37232194E-06  1.15889290E-05
 -9.16984233E-04 -9.35416084E-03 -5.99779840E-02 -1.72247547E-01  1.07260475E+00
  1.00000000E+00  1.00000000E+00  3.94263872E-02  2.44088985E-01  8.15492009E-01
  1.00000000E+00  1.00000000E+00  1.00000000E+00  1.00000000E+00  1.00000000E+00
  5.41973471E-04  4.19287723E-03  2.15221634E-02  8.35343195E-02  2.39582841E-01
  4.42852844E-01  3.51799564E-01  2.37232194E-06  1.15889290E-05 -9.16984233E-04
 -9.35416084E-03 -5.99779840E-02 -1.72247547E-01  1.07260475E+00  1.00000000E+00
  1.00000000E+00  3.94263872E-02  2.44088985E-01  8.15492009E-01  1.00000000E+00
  1.00000000E+00  1.00000000E+00  1.00000000E+00  1.00000000E+00  2.54948632E-02
  1.90362766E-01  8.52162022E-01  1.00000000E+00  1.00000000E+00  1.00000000E+00
  1.00000000E+00  1.00000000E+00  2.54948632E-02  1.90362766E-01  8.52162022E-01
  1.00000000E+00  1.00000000E+00  1.00000000E+00  1.00000000E+00  1.00000000E+00
  2.54948632E-02  1.90362766E-01  8.52162022E-01  1.00000000E+00  1.00000000E+00
  1.00000000E+00  1.00000000E+00  1.00000000E+00  2.54948632E-02  1.90362766E-01
  8.52162022E-01  1.00000000E+00  1.00000000E+00  1.00000000E+00  1.00000000E+00
  1.00000000E+00  2.54948632E-02  1.90362766E-01  8.52162022E-01  1.00000000E+00
  1.00000000E+00  1.00000000E+00  1.00000000E+00  1.00000000E+00  2.54948632E-02
  1.90362766E-01  8.52162022E-01  1.00000000E+00  1.00000000E+00  1.00000000E+00
  1.00000000E+00  1.00000000E+00
Coordinates of each shell                  R   N=         288
  2.63256991E+00  0.00000000E+00  0.00000000E+00  2.63256991E+00  0.00000000E+00
  0.00000000E+00  2.63256991E+00  0.00000000E+00  0.00000000E+00  2.63256991E+00
  0.00000000E+00  0.00000000E+00  2.63256991E+00  0.00000000E+00  0.00000000E+00
  2.63256991E+00  0.00000000E+00  0.00000000E+00  2.63256991E+00  0.00000000E+00
  0.00000000E+00  2.63256991E+00  0.00000000E+00  0.00000000E+00  2.63256991E+00
  0.00000000E+00  0.00000000E+00  2.63256991E+00  0.00000000E+00  0.00000000E+00
  1.31628495E+00  2.27987331E+00  1.39601978E-16  1.31628495E+00  2.27987331E+00
  1.39601978E-16  1.31628495E+00  2.27987331E+00  1.39601978E-16  1.31628495E+00
  2.27987331E+00  1.39601978E-16  1.31628495E+00  2.27987331E+00  1.39601978E-16
  1.31628495E+00  2.27987331E+00  1.39601978E-16  1.31628495E+00  2.27987331E+00
  1.39601978E-16  1.31628495E+00  2.27987331E+00  1.39601978E-16  1.31628495E+00
  2.27987331E+00  1.39601978E-16  1.31628495E+00  2.27987331E+00  1.39601978E-16
 -1.31628495E+00  2.27987331E+00  1.39601978E-16 -1.31628495E+00  2.27987331E+00
  1.39601978E-16 -1.31628495E+00  2.27987331E+00  1.39601978E-16 -1.31628495E+00
  2.27987331E+00  1.39601978E-16 -1.31628495E+00  2.27987331E+00  1.39601978E-16
 -1.31628495E+00  2.27987331E+00  1.39601978E-16 -1.31628495E+00  2.27987331E+00
  1.39601978E-16 -1.31628495E+00  2.27987331E+00  1.39601978E-16 -1.31628495E+00
  2.27987331E+00  1.39601978E-16 -1.31628495E+00  2.27987331E+00  1.39601978E-16
 -2.63256991E+00  0.00000000E+00  0.00000000E+00 -2.63256991E+00  0.00000000E+00
  0.00000000E+00 -2.63256991E+00  0.00000000E+00  0.00000000E+00 -2.63256991E+00
  0.00000000E+00  0.00000000E+00 -2.63256991E+00  0.00000000E+00  0.00000000E+00
 -2.63256991E+00  0.00000000E+00  0.00000000E+00 -2.63256991E+00  0.00000000E+00
  0.00000000E+00 -2.63256991E+00  0.00000000E+00  0.00000000E+00 -2.63256991E+00
  0.00000000E+00  0.00000000E+00 -2.63256991E+00  0.00000000E+00  0.00000000E+00
 -1.31628495E+00 -2.27987331E+00 -1.39601978E-16 -1.31628495E+00 -2.27987331E+00
 -1.39601978E-16 -1.31628495E+00 -2.27987331E+00 -1.39601978E-16 -1.31628495E+00
 -2.27987331E+00 -1.39601978E-16 -1.31628495E+00 -2.27987331E+00 -1.39601978E-16
 -1.31628495E+00 -2.27987331E+00 -1.39601978E-16 -1.31628495E+00 -2.27987331E+00
 -1.39601978E-16 -1.31628495E+00 -2.27987331E+00 -1.39601978E-16 -1.31628495E+00
 -2.27987331E+00 -1.39601978E-16 -1.31628495E+00 -2.27987331E+00 -1.39601978E-16
  1.31628495E+00 -2.27987331E+00 -1.39601978E-16  1.31628495E+00 -2.27987331E+00
 -1.39601978E-16  1.31628495E+00 -2.27987331E+00 -1.39601978E-16  1.31628495E+00
 -2.27987331E+00 -1.39601978E-16  1.31628495E+00 -2.27987331E+00 -1.39601978E-16
  1.31628495E+00 -2.27987331E+00 -1.39601978E-16  1.31628495E+00 -2.27987331E+00
 -1.39601978E-16  1.31628495E+00 -2.27987331E+00 -1.39601978E-16  1.31628495E+00
 -2.27987331E+00 -1.39601978E-16  1.31628495E+00 -2.27987331E+00 -1.39601978E-16
  4.69242996E+00  0.00000000E+00  0.00000000E+00  4.69242996E+00  0.00000000E+00
  0.00000000E+00  4.69242996E+00  0.00000000E+00  0.00000000E+00  4.69242996E+00
  0.00000000E+00  0.00000000E+00  4.69242996E+00  0.00000000E+00  0.00000000E+00
  4.69242996E+00  0.00000000E+00  0.00000000E+00  2.34622538E+00  4.06376155E+00
  2.48833628E-16  2.34622538E+00  4.06376155E+00  2.48833628E-16  2.34622538E+00
  4.06376155E+00  2.48833628E-16  2.34622538E+00  4.06376155E+00  2.48833628E-16
  2.34622538E+00  4.06376155E+00  2.48833628E-16  2.34622538E+00  4.06376155E+00
  2.48833628E-16 -2.34622538E+00  4.06376155E+00  2.48833628E-16 -2.34622538E+00
  4.06376155E+00  2.48833628E-16 -2.34622538E+00  4.06376155E+00  2.48833628E-16
 -2.34622538E+00  4.06376155E+00  2.48833628E-16 -2.34622538E+00  4.06376155E+00
  2.48833628E-16 -2.34622538E+00  4.06376155E+00  2.48833628E-16 -4.69242996E+00
  0.00000000E+00  0.00000000E+00 -4.69242996E+00  0.00000000E+00  0.00000000E+00
 -4.69242996E+00  0.00000000E+00  0.00000000E+00 -4.69242996E+00  0.00000000E+00
  0.00000000E+00 -4.69242996E+00  0.00000000E+00  0.00000000E+00 -4.69242996E+00
  0.00000000E+00  0.00000000E+00 -2.34622538E+00 -4.06376155E+00 -2.48833628E-16
 -2.34622538E+00 -4.06376155E+00 -2.48833628E-16 -2.34622538E+00 -4.06376155E+00
 -2.48833628E-16 -2.34622538E+00 -4.06376155E+00 -2.48833628E-16 -2.34622538E+00
 -4.06376155E+00 -2.48833628E-16 -2.34622538E+00 -4.06376155E+00 -2.48833628E-16
  2.34622538E+00 -4.06376155E+00 -2.48833628E-16  2.34622538E+00 -4.06376155E+00
 -2.48833628E-16  2.34622538E+00 -4.06376155E+00 -2.48833628E-16  2.34622538E+00
 -4.06376155E+00 -2.48833628E-16  2.34622538E+00 -4.06376155E+00 -2.48833628E-16
  2.34622538E+00 -4.06376155E+00 -2.48833628E-16
Overlap Matrix                             R   N=       34980
  1.00000000E+00  1.06072740E-01  1.00000000E+00  5.16996772E-01  7.66249379E-01
  1.00000000E+00  1.47493045E-01  8.35027567E-01  5.35796369E-01  1.00000000E+00
  4.37309732E-16 -7.85423227E-16 -7.40606011E-16  0.00000000E+00  1.00000000E+00
  0.00000000E+00  0.00000000E+00  0.00000000E+00  0.00000000E+00  0.00000000E+00
  1.00000000E+00  0.00000000E+00  0.00000000E+00  0.00000000E+00  0.00000000E+00
  0.00000000E+00  0.00000000E+00  1.00000000E+00 -2.36765895E-19  0.00000000E+00
  4.80011113E-16  0.00000000E+00  6.11572820E-01  0.00000000E+00  0.00000000E+00
  1.00000000E+00  0.00000000E+00  0.00000000E+00  0.00000000E+00  0.00000000E+00
  0.00000000E+00  6.11572820E-01  0.00000000E+00  0.00000000E+00  1.00000000E+00
  0.00000000E+00  0.00000000E+00  0.00000000E+00  0.00000000E+00  0.00000000E+00
  0.00000000E+00  6.11572820E-01  0.00000000E+00  0.00000000E+00  1.00000000E+00
  3.67323941E-17 -2.88413234E-16  1.59830439E-16  0.00000000E+00  2.21926537E-01
  0.00000000E+00  0.00000000E+00  6.74476215E-01  0.00000000E+00  0.00000000E+00
  1.00000000E+00  0.00000000E+00  0.00000000E+00  0.00000000E+00  0.00000000E+00
  0.00000000E+00  2.21926537E-01  0.00000000E+00  0.00000000E+00  6.74476215E-01
  0.00000000E+00  0.00000000E+00  1.00000000E+00  0.00000000E+00  0.00000000E+00
  0.00000000E+00  0.00000000E+00  0.00000000E+00  0.00000000E+00  2.21926537E-01
  0.00000000E+00  0.00000000E+00  6.74476215E-01  0.00000000E+00  0.00000000E+00
  1.00000000E+00  0.00000000E+00  0.00000000E+00  0.00000000E+00  0.00000000E+00
 -3.58454285E-16  0.00000000E+00  0.00000000E+00  0.00000000E+00  0.00000000E+00
  0.00000000E+00  0.00000000E+00  0.00000000E+00  0.00000000E+00  1.00000000E+00
  0.00000000E+00  0.00000000E+00  0.00000000E+00  0.00000000E+00  0.00000000E+00
  0.00000000E+00  6.20861034E-16  0.00000000E+00  0.00000000E+00  0.00000000E+00
  0.00000000E+00  0.00000000E+00  0.00000000E+00  0.00000000E+00  1.00000000E+00
  0.00000000E+00  0.00000000E+00  0.00000000E+00  0.00000000E+00  0.00000000E+00
  0.00000000E+00  0.00000000E+00  0.00000000E+00  0.00000000E+00  0.00000000E+00
  0.00000000E+00  0.00000000E+00  0.00000000E+00  0.00000000E+00  0.00000000E+00
  1.00000000E+00 -4.82787346E-18  2.15161784E-17 -5.56058288E-19 -2.73557903E-17
  6.20861034E-16  0.00000000E+00  0.00000000E+00  0.00000000E+00  0.00000000E+00
  0.00000000E+00  0.00000000E+00  0.00000000E+00  0.00000000E+00  9.91611210E-18
  0.00000000E+00  0.00000000E+00  1.00000000E+00  0.00000000E+00  0.00000000E+00
  0.00000000E+00  0.00000000E+00  0.00000000E+00  6.20861034E-16  0.00000000E+00
  0.00000000E+00  0.00000000E+00  0.00000000E+00  0.00000000E+00  0.00000000E+00
  0.00000000E+00  0.00000000E+00  0.00000000E+00  0.00000000E+00  0.00000000E+00
  1.00000000E+00  0.00000000E+00  0.00000000E+00  0.00000000E+00  0.00000000E+00
  0.00000000E+00  0.00000000E+00  0.00000000E+00  0.00000000E+00  0.00000000E+00
  0.00000000E+00  0.00000000E+00  0.00000000E+00  0.00000000E+00  5.31577394E-01
  0.00000000E+00  0.00000000E+00 -7.00410234E-18  0.00000000E+00  1.00000000E+00
  0.00000000E+00  0.00000000E+00  0.00000000E+00  0.00000000E+00  0.00000000E+00
  0.00000000E+00  0.00000000E+00  0.00000000E+00  0.00000000E+00  0.00000000E+00
  0.00000000E+00  0.00000000E+00  0.00000000E+00  0.00000000E+00  5.31577394E-01
  0.00000000E+00  0.00000000E+00  0.00000000E+00  0.00000000E+00  1.00000000E+00
  0.00000000E+00  0.00000000E+00  0.00000000E+00  0.00000000E+00  0.00000000E+00
  0.00000000E+00  0.00000000E+00  0.00000000E+00  0.00000000E+00  0.00000000E+00
  0.00000000E+00  0.00000000E+00  0.00000000E+00  0.00000000E+00  0.00000000E+00
  5.31577394E-01  0.00000000E+00  0.00000000E+00  0.00000000E+00  0.00000000E+00
  1.00000000E+00  1.58491864E-18  1.82990740E-17 -2.66025376E-18  2.46470348E-17
  0.00000000E+00  0.00000000E+00  0.00000000E+00  0.00000000E+00  0.00000000E+00
  0.00000000E+00  0.00000000E+00  0.00000000E+00  0.00000000E+00 -7.87006581E-18
  0.00000000E+00  0.00000000E+00  5.31577394E-01  0.00000000E+00  9.91611210E-18
  0.00000000E+00  0.00000000E+00  1.00000000E+00  0.00000000E+00  0.00000000E+00
  0.00000000E+00  0.00000000E+00  0.00000000E+00  0.00000000E+00  0.00000000E+00
  0.00000000E+00  0.00000000E+00  0.00000000E+00  0.00000000E+00  0.00000000E+00
  0.00000000E+00  0.00000000E+00  0.00000000E+00  0.00000000E+00  0.00000000E+00
  5.31577394E-01  0.00000000E+00  0.00000000E+00  0.00000000E+00  0.00000000E+00
  1.00000000E+00  0.00000000E+00  0.00000000E+00  0.00000000E+00  0.00000000E+00
  0.00000000E+00  0.00000000E+00  0.00000000E+00  0.00000000E+00  0.00000000E+00
  1.11022302E-16  0.00000000E+00  0.00000000E+00 -1.11022302E-16  0.00000000E+00
  0.00000000E+00  0.00000000E+00  0.00000000E+00  0.00000000E+00  0.00000000E+00
 -4.34478918E-16  0.00000000E+00  0.00000000E+00  0.00000000E+00  1.00000000E+00
  4.92864586E-33 -3.30213628E-32  4.38321395E-32 -3.08925265E-32 -7.27047331E-18
  0.00000000E+00  0.00000000E+00 -4.04975662E-17  0.00000000E+00  0.00000000E+00
  8.09508683E-17  0.00000000E+00  0.00000000E+00  0.00000000E+00  0.00000000E+00
  0.00000000E+00  0.00000000E+00  0.00000000E+00  6.14445978E-16  0.00000000E+00
  0.00000000E+00 -1.77375275E-16  0.00000000E+00  0.00000000E+00  1.00000000E+00
  0.00000000E+00  0.00000000E+00  0.00000000E+00  0.00000000E+00  0.00000000E+00
 -7.27047331E-18  0.00000000E+00  0.00000000E+00 -4.04975662E-17  0.00000000E+00
  0.00000000E+00  8.09508683E-17  0.00000000E+00  0.00000000E+00  0.00000000E+00
  0.00000000E+00  0.00000000E+00  0.00000000E+00  0.00000000E+00  0.00000000E+00
  0.00000000E+00  0.00000000E+00 -1.77375275E-16  0.00000000E+00  0.00000000E+00
  1.00000000E+00  0.00000000E+00  0.00000000E+00  0.00000000E+00  0.00000000E+00
  0.00000000E+00  0.00000000E+00 -9.05782930E-18  0.00000000E+00  0.00000000E+00
 -5.47976291E-17  0.00000000E+00  0.00000000E+00  1.46440629E-17  0.00000000E+00
  0.00000000E+00  0.00000000E+00  0.00000000E+00  0.00000000E+00  0.00000000E+00
  5.60909871E-16  0.00000000E+00  0.00000000E+00  0.00000000E+00  1.44521273E-17
  0.00000000E+00  0.00000000E+00  1.00000000E+00  0.00000000E+00  0.00000000E+00
  0.00000000E+00  0.00000000E+00  0.00000000E+00  0.00000000E+00  0.00000000E+00
  0.00000000E+00  0.00000000E+00  0.00000000E+00  0.00000000E+00  0.00000000E+00
  0.00000000E+00  0.00000000E+00  0.00000000E+00  0.00000000E+00  0.00000000E+00
  0.00000000E+00  0.00000000E+00  0.00000000E+00  5.60909871E-16  0.00000000E+00
  0.00000000E+00  0.00000000E+00  0.00000000E+00  0.00000000E+00  0.00000000E+00
  1.00000000E+00 -4.22414652E-33  9.51802251E-32  1.72668180E-32  1.33424241E-31
  4.52004521E-17  0.00000000E+00  0.00000000E+00  1.23086578E-16  0.00000000E+00
  0.00000000E+00 -7.89175598E-17  0.00000000E+00  0.00000000E+00  0.00000000E+00
  0.00000000E+00  0.00000000E+00  0.00000000E+00  0.00000000E+00 -1.23725121E-32
  0.00000000E+00  0.00000000E+00  6.86971488E-16  0.00000000E+00  0.00000000E+00
 -1.53852385E-16  0.00000000E+00  0.00000000E+00  0.00000000E+00  1.00000000E+00
  0.00000000E+00  0.00000000E+00  0.00000000E+00  0.00000000E+00  0.00000000E+00
 -8.16982669E-17  0.00000000E+00  0.00000000E+00 -1.60331060E-16  0.00000000E+00
  0.00000000E+00  3.36023869E-17  0.00000000E+00  0.00000000E+00  0.00000000E+00
  0.00000000E+00  0.00000000E+00  0.00000000E+00  0.00000000E+00  0.00000000E+00
  0.00000000E+00  0.00000000E+00  6.86971488E-16  0.00000000E+00  0.00000000E+00
  2.90191090E-16  0.00000000E+00  0.00000000E+00  0.00000000E+00  1.00000000E+00
  1.26567353E-06  3.08204249E-02  2.67299168E-03  6.19581485E-02 -1.48983581E-03
  2.58047234E-03  1.58008359E-19 -4.00412341E-02  6.93534790E-02  4.24667581E-18
 -5.56835528E-02  9.64467805E-02  5.90566205E-18 -6.73246314E-03 -6.18366586E-19
  1.07104277E-18 -5.83048755E-03 -1.00986927E-02 -7.78848762E-02 -7.15360842E-18
  1.23904181E-17 -6.74503211E-02 -1.16827291E-01 -6.23455780E-18  2.39987364E-02
 -4.15670472E-02 -4.02439212E-18 -6.97044615E-18  6.19644893E-02 -3.16310282E-08
  1.00000000E+00  3.08204249E-02  3.05108045E-01  1.51414389E-01  4.36809091E-01
 -6.98357882E-02  1.20959181E-01  7.40661368E-18 -2.20533958E-01  3.81976170E-01
  2.33892947E-17 -2.98239529E-01  5.16566221E-01  3.16305584E-17 -6.82611445E-02
 -6.26968317E-18  1.08594141E-17 -5.91159200E-02 -1.02391697E-01 -2.14330855E-01
 -1.96859658E-17  3.40971064E-17 -1.85616075E-01 -3.21496220E-01 -9.84589752E-18
  3.78998972E-02 -6.56445734E-02 -6.35550327E-18 -1.10080459E-17  9.78571426E-02
 -4.99531601E-08  1.06072740E-01  1.00000000E+00  2.67299168E-03  1.51414389E-01
  4.33201436E-02  2.45629765E-01 -2.87869492E-02  4.98604781E-02  3.05307375E-18
 -1.54994740E-01  2.68458870E-01  1.64383648E-17 -1.99567212E-01  3.45660687E-01
  2.11656127E-17 -5.72682007E-02 -5.25999787E-18  9.11058714E-18 -4.95957459E-02
 -8.59022842E-02 -2.24097669E-01 -2.05830329E-17  3.56508728E-17 -1.94074388E-01
 -3.36146437E-01 -1.80761206E-17  6.95805651E-02 -1.20517121E-01 -1.16680926E-17
 -2.02097133E-17  1.79656300E-01 -9.17091959E-08  5.16996772E-01  7.66249379E-01
  1.00000000E+00  6.19581485E-02  4.36809091E-01  2.45629765E-01  6.40644855E-01
 -4.96595607E-02  8.60129160E-02  5.26677211E-18 -1.69846642E-01  2.94183130E-01
  1.80135214E-17 -3.06060618E-01  5.30112749E-01  3.24600441E-17 -2.08598923E-02
 -1.91594965E-18  3.31852344E-18 -1.80652073E-02 -3.12898323E-02 -9.63105330E-02
 -8.84597721E-18  1.53216880E-17 -8.34074174E-02 -1.44465771E-01 -1.65114691E-18
  6.35577385E-03 -1.10085276E-02 -1.06581137E-18 -1.84603800E-18  1.64105424E-02
 -8.37709363E-09  1.47493045E-01  8.35027567E-01  5.35796369E-01  1.00000000E+00
  1.48983581E-03  6.98357882E-02  2.87869492E-02  4.96595607E-02 -1.21280889E-02
  3.97207482E-02  2.43219436E-18 -1.50832805E-03  1.39775067E-01  8.55875439E-18
  6.37812795E-02  6.84077178E-02  4.18876463E-18 -4.01774484E-02 -2.47754627E-18
  8.49212440E-18 -6.90975343E-02 -4.04614012E-02 -4.80698484E-02  1.34700764E-18
  1.76275851E-17 -2.04620892E-01  2.19983041E-02 -1.23536727E-17  6.57656805E-03
 -8.23644137E-02 -1.82814002E-17 -7.86099204E-18  9.63313080E-02 -1.37439521E-01
  2.18654866E-16 -3.92711614E-16 -3.70303005E-16  0.00000000E+00  1.00000000E+00
 -2.58047234E-03 -1.20959181E-01 -4.98604781E-02 -8.60129160E-02  3.97207482E-02
 -5.79936943E-02 -4.21268586E-18  1.39775067E-01 -1.62906799E-01 -1.48242033E-17
  6.84077178E-02 -1.52092111E-02 -7.25515601E-18  6.95894093E-02  8.49212440E-18
 -1.22834146E-17  4.04614956E-02  1.15818372E-01  8.32594524E-02  1.76275851E-17
 -1.90075904E-17 -2.19981082E-02  1.79219561E-01  2.13971973E-17 -8.23644137E-02
  1.01682876E-01  7.86101534E-18  2.73585018E-17 -1.66850947E-01 -7.93505999E-02
  4.09914644E-17 -1.83175960E-16 -2.96641380E-16  0.00000000E+00  3.12009465E-31
  1.00000000E+00 -1.58008359E-19 -7.40661368E-18 -3.05307375E-18 -5.26677211E-18
  2.43219436E-18 -4.21268586E-18  1.08046868E-02  8.55875439E-18 -1.48242033E-17
  7.91908125E-02  4.18876463E-18 -7.25515601E-18  1.03276478E-01  8.46200741E-18
 -2.28685440E-02  3.96094957E-02  4.90293416E-18  8.49212440E-18  2.50588349E-17
 -1.08660750E-01  1.88206014E-01  1.01772990E-17  1.76275851E-17 -1.00371589E-01
 -1.59080368E-17  2.75535389E-17 -6.47896204E-02 -1.12218826E-01 -1.86324119E-17
  9.51129195E-24 -2.61217113E-33 -3.17392492E-32 -4.33985570E-32  0.00000000E+00
  2.50354329E-48  5.00708659E-48  1.00000000E+00  4.00412341E-02  2.20533958E-01
  1.54994740E-01  1.69846642E-01 -1.50832805E-03  1.39775067E-01  8.55875439E-18
  8.94556194E-02  3.04919295E-01  1.86709219E-17  2.43212622E-01  1.96754900E-01
  1.20477629E-17 -3.99703924E-02  1.28008804E-19  1.29391951E-17 -1.42082342E-01
  2.09054242E-03 -2.83086681E-02  1.01651265E-17  2.66135399E-17 -3.85600038E-01
  1.66009113E-01 -5.49611244E-18 -3.41699740E-02 -3.66436838E-02 -1.74643433E-17
  1.88992893E-18  1.89121764E-02 -1.85569766E-01 -1.18382947E-19  0.00000000E+00
  2.40005557E-16  0.00000000E+00  6.11572820E-01  0.00000000E+00  9.58886285E-48
  1.00000000E+00 -6.93534790E-02 -3.81976170E-01 -2.68458870E-01 -2.94183130E-01
  1.39775067E-01 -1.62906799E-01 -1.48242033E-17  3.04919295E-01 -2.62635131E-01
 -3.23389981E-17  1.96754900E-01  1.60194548E-02 -2.08673457E-17  6.92307776E-02
  1.29391951E-17 -1.48128985E-17 -2.09039860E-03  1.39668476E-01  4.90320707E-02
  2.66135399E-17 -2.05655665E-17 -1.66008818E-01  1.93909472E-01  9.51954972E-18
 -3.66436838E-02  8.14254067E-03 -1.88991221E-18  1.52820518E-17 -3.27570820E-02
 -1.07138690E-01  2.34534325E-18 -2.59546479E-20  4.80011113E-16  0.00000000E+00
  0.00000000E+00  6.11572820E-01  0.00000000E+00  0.00000000E+00  1.00000000E+00
 -4.24667581E-18 -2.33892947E-17 -1.64383648E-17 -1.80135214E-17  8.55875439E-18
 -1.48242033E-17  7.91908125E-02  1.86709219E-17 -3.23389981E-17  2.65500787E-01
  1.20477629E-17 -2.08673457E-17  3.56809072E-01  1.74000703E-17 -7.16446169E-02
  1.24092165E-01  7.47045365E-18  1.29391951E-17  4.72223933E-17 -2.40722618E-01
  4.16943969E-01  1.53653465E-17  2.66135399E-17 -1.35520975E-01 -1.69131768E-17
  2.92944930E-17 -8.74784649E-02 -1.51517027E-01 -1.33686598E-17  6.82430312E-24
 -8.77576070E-34  3.37505163E-35  0.00000000E+00  0.00000000E+00  9.58886285E-48
  0.00000000E+00  6.11572820E-01  0.00000000E+00  0.00000000E+00  1.00000000E+00