Jobname.Temp
SP        R                             cc-pVTZ             
Number of atoms                            I               12
Charge                                     I                0
Multiplicity                               I                1
Number of electrons                        I               42
Number of alpha electrons                  I               21
Number of beta electrons                   I               21
Atomic numbers                             I   N=          12
           6           6           6           6           6           6
           1           1           1           1           1           1
Current cartesian coordinates              R   N=          36
  2.63256991E+00  0.00000000E+00  0.00000000E+00  1.31628495E+00  2.27987331E+00
  1.39601978E-16 -1.31628495E+00  2.27987331E+00  1.39601978E-16 -2.63256991E+00
  0.00000000E+00  0.00000000E+00 -1.31628495E+00 -2.27987331E+00 -1.39601978E-16
  1.31628495E+00 -2.27987331E+00 -1.39601978E-16  4.69242996E+00  0.00000000E+00
  0.00000000E+00  2.34622538E+00  4.06376155E+00  2.48833628E-16 -2.34622538E+00
  4.06376155E+00  2.48833628E-16 -4.69242996E+00  0.00000000E+00  0.00000000E+00
 -2.34622538E+00 -4.06376155E+00 -2.48833628E-16  2.34622538E+00 -4.06376155E+00
 -2.48833628E-16
Nuclear charges                            R   N=          12
  6.00000000E+00  6.00000000E+00  6.00000000E+00  6.00000000E+00  6.00000000E+00
  6.00000000E+00  1.00000000E+00  1.00000000E+00  1.00000000E+00  1.00000000E+00
  1.00000000E+00  1.00000000E+00
Number of basis functions                  I              300
Number of contracted shells                I               96
Number of primitive shells                 I              192
Highest angular momentum                   I                3
Largest degree of contraction              I                7
Shell types                                I   N=          96
           0           0           0           0           1           1
           1           2           2           3           0           0
           0           0           1           1           1           2
           2           3           0           0           0           0
           1           1           1           2           2           3
           0           0           0           0           1           1
           1           2           2           3           0           0
           0           0           1           1           1           2
           2           3           0           0           0           0
           1           1           1           2           2           3
           0           0           0           1           1           2
           0           0           0           1           1           2
           0           0           0           1           1           2
           0           0           0           1           1           2
           0           0           0           1           1           2
           0           0           0           1           1           2
Number of primitives per shell             I   N=          96
           7           7           1           1           3           1
           1           1           1           1           7           7
           1           1           3           1           1           1
           1           1           7           7           1           1
           3           1           1           1           1           1
           7           7           1           1           3           1
           1           1           1           1           7           7
           1           1           3           1           1           1
           1           1           7           7           1           1
           3           1           1           1           1           1
           3           1           1           1           1           1
           3           1           1           1           1           1
           3           1           1           1           1           1
           3           1           1           1           1           1
           3           1           1           1           1           1
           3           1           1           1           1           1
Shell to atom map                          I   N=          96
           1           1           1           1           1           1
           1           1           1           1           2           2
           2           2           2           2           2           2
           2           2           3           3           3           3
           3           3           3           3           3           3
           4           4           4           4           4           4
           4           4           4           4           5           5
           5           5           5           5           5           5
           5           5           6           6           6           6
           6           6           6           6           6           6
           7           7           7           7           7           7
           8           8           8           8           8           8
           9           9           9           9           9           9
          10          10          10          10          10          10
          11          11          11          11          11          11
          12          12          12          12          12          12
Primitive exponents                        R   N=         192
  8.23600000E+03  1.23500000E+03  2.80800000E+02  7.92700000E+01  2.55900000E+01
  8.99700000E+00  3.31900000E+00  8.23600000E+03  1.23500000E+03  7.92700000E+01
  2.55900000E+01  8.99700000E+00  3.31900000E+00  3.64300000E-01  9.05900000E-01
  1.28500000E-01  1.87100000E+01  4.13300000E+00  1.20000000E+00  3.82700000E-01
  1.20900000E-01  1.09700000E+00  3.18000000E-01  7.61000000E-01  8.23600000E+03
  1.23500000E+03  2.80800000E+02  7.92700000E+01  2.55900000E+01  8.99700000E+00
  3.31900000E+00  8.23600000E+03  1.23500000E+03  7.92700000E+01  2.55900000E+01
  8.99700000E+00  3.31900000E+00  3.64300000E-01  9.05900000E-01  1.28500000E-01
  1.87100000E+01  4.13300000E+00  1.20000000E+00  3.82700000E-01  1.20900000E-01
  1.09700000E+00  3.18000000E-01  7.61000000E-01  8.23600000E+03  1.23500000E+03
  2.80800000E+02  7.92700000E+01  2.55900000E+01  8.99700000E+00  3.31900000E+00
  8.23600000E+03  1.23500000E+03  7.92700000E+01  2.55900000E+01  8.99700000E+00
  3.31900000E+00  3.64300000E-01  9.05900000E-01  1.28500000E-01  1.87100000E+01
  4.13300000E+00  1.20000000E+00  3.82700000E-01  1.20900000E-01  1.09700000E+00
  3.18000000E-01  7.61000000E-01  8.23600000E+03  1.23500000E+03  2.80800000E+02
  7.92700000E+01  2.55900000E+01  8.99700000E+00  3.31900000E+00  8.23600000E+03
  1.23500000E+03  7.92700000E+01  2.55900000E+01  8.99700000E+00  3.31900000E+00
  3.64300000E-01  9.05900000E-01  1.28500000E-01  1.87100000E+01  4.13300000E+00
  1.20000000E+00  3.82700000E-01  1.20900000E-01  1.09700000E+00  3.18000000E-01
  7.61000000E-01  8.23600000E+03  1.23500000E+03  2.80800000E+02  7.92700000E+01
  2.55900000E+01  8.99700000E+00  3.31900000E+00  8.23600000E+03  1.23500000E+03
  7.92700000E+01  2.55900000E+01  8.99700000E+00  3.31900000E+00  3.64300000E-01
  9.05900000E-01  1.28500000E-01  1.87100000E+01  4.13300000E+00  1.20000000E+00
  3.82700000E-01  1.20900000E-01  1.09700000E+00  3.18000000E-01  7.61000000E-01
  8.23600000E+03  1.23500000E+03  2.80800000E+02  7.92700000E+01  2.55900000E+01
  8.99700000E+00  3.31900000E+00  8.23600000E+03  1.23500000E+03  7.92700000E+01
  2.55900000E+01  8.99700000E+00  3.31900000E+00  3.64300000E-01  9.05900000E-01
  1.28500000E-01  1.87100000E+01  4.13300000E+00  1.20000000E+00  3.82700000E-01
  1.20900000E-01  1.09700000E+00  3.18000000E-01  7.61000000E-01  3.38700000E+01
  5.09500000E+00  1.15900000E+00  3.25800000E-01  1.02700000E-01  1.40700000E+00
  3.88000000E-01  1.05700000E+00  3.38700000E+01  5.09500000E+00  1.15900000E+00
  3.25800000E-01  1.02700000E-01  1.40700000E+00  3.88000000E-01  1.05700000E+00
  3.38700000E+01  5.09500000E+00  1.15900000E+00  3.25800000E-01  1.02700000E-01
  1.40700000E+00  3.88000000E-01  1.05700000E+00  3.38700000E+01  5.09500000E+00
  1.15900000E+00  3.25800000E-01  1.02700000E-01  1.40700000E+00  3.88000000E-01
  1.05700000E+00  3.38700000E+01  5.09500000E+00  1.15900000E+00  3.25800000E-01
  1.02700000E-01  1.40700000E+00  3.88000000E-01  1.05700000E+00  3.38700000E+01
  5.09500000E+00  1.15900000E+00  3.25800000E-01  1.02700000E-01  1.40700000E+00
  3.88000000E-01  1.05700000E+00
Contraction coefficients                   R   N=         192
  5.41973471E-04  4.19287723E-03  2.15221634E-02  8.35343195E-02  2.39582841E-01
  4.42852844E-01  3.51799564E-01  2.37232194E-06  1.15889290E-05 -9.16984233E-04
 -9.35416084E-03 -5.99779840E-02 -1.72247547E-01  1.07260475E+00  1.00000000E+00
  1.00000000E+00  3.94263872E-02  2.44088985E-01  8.15492009E-01  1.00000000E+00
  1.00000000E+00  1.00000000E+00  1.00000000E+00  1.00000000E+00  5.41973471E-04
  4.19287723E-03  2.15221634E-02  8.35343195E-02  2.39582841E-01  4.42852844E-01
  3.51799564E-01  2.37232194E-06  1.15889290E-05 -9.16984233E-04 -9.35416084E-03
 -5.99779840E-02 -1.72247547E-01  1.07260475E+00  1.00000000E+00  1.00000000E+00
  3.94263872E-02  2.44088985E-01  8.15492009E-01  1.00000000E+00  1.00000000E+00
  1.00000000E+00  1.00000000E+00  1.00000000E+00  5.41973471E-04  4.19287723E-03
  2.15221634E-02  8.35343195E-02  2.39582841E-01  4.42852844E-01  3.51799564E-01
  2.37232194E-06  1.15889290E-05 -9.16984233E-04 -9.35416084E-03 -5.99779840E-02
 -1.72247547E-01  1.07260475E+00  1.00000000E+00  1.00000000E+00  3.94263872E-02
  2.44088985E-01  8.15492009E-01  1.00000000E+00  1.00000000E+00  1.00000000E+00
  1.00000000E+00  1.00000000E+00  5.41973471E-04  4.19287723E-03  2.15221634E-02
  8.35343195E-02  2.39582841E-01  4.42852844E-01  3.51799564E-01  2.37232194E-06
  1.15889290E-05 -9.16984233E-04 -9.35416084E-03 -5.99779840E-02 -1.72247547E-01
  1.07260475E+00  1.00000000E+00  1.00000000E+00  3.94263872E-02  2.44088985E-01
  8.15492009E-01  1.00000000E+00  1.00000000E+00  1.00000000E+00  1.00000000E+00
  1.00000000E+00  5.41973471E-04  4.19287723E-03  2.15221634E-02  8.35343195E-02
  2.39582841E-01  4.42852844E-01  3.51799564E-01  2.37232194E-06  1.15889290E-05
 -9.16984233E-04 -9.35416084E-03 -5.99779840E-02 -1.72247547E-01  1.07260475E+00
  1.00000000E+00  1.00000000E+00  3.94263872E-02  2.44088985E-01  8.15492009E-01
  1.00000000E+00  1.00000000E+00  1.00000000E+00  1.00000000E+00  1.00000000E+00
  5.41973471E-04  4.19287723E-03  2.15221634E-02  8.35343195E-02  2.39582841E-01
  4.42852844E-01  3.51799564E-01  2.37232194E-06  1.15889290E-05 -9.16984233E-04
 -9.35416084E-03 -5.99779840E-02 -1.72247547E-01  1.07260475E+00  1.00000000E+00
  1.00000000E+00  3.94263872E-02  2.44088985E-01  8.15492009E-01  1.00000000E+00
  1.00000000E+00  1.00000000E+00  1.00000000E+00  1.00000000E+00  2.54948632E-02
  1.90362766E-01  8.52162022E-01  1.00000000E+00  1.00000000E+00  1.00000000E+00
  1.00000000E+00  1.00000000E+00  2.54948632E-02  1.90362766E-01  8.52162022E-01
  1.00000000E+00  1.00000000E+00  1.00000000E+00  1.00000000E+00  1.00000000E+00
  2.54948632E-02  1.90362766E-01  8.52162022E-01  1.00000000E+00  1.00000000E+00
  1.00000000E+00  1.00000000E+00  1.00000000E+00  2.54948632E-02  1.90362766E-01
  8.52162022E-01  1.00000000E+00  1.00000000E+00  1.00000000E+00  1.00000000E+00
  1.00000000E+00  2.54948632E-02  1.90362766E-01  8.52162022E-01  1.00000000E+00
  1.00000000E+00  1.00000000E+00  1.00000000E+00  1.00000000E+00  2.54948632E-02
  1.90362766E-01  8.52162022E-01  1.00000000E+00  1.00000000E+00  1.00000000E+00
  1.00000000E+00  1.00000000E+00
Coordinates of each shell                  R   N=         288
  2.63256991E+00  0.00000000E+00  0.00000000E+00  2.63256991E+00  0.00000000E+00
  0.00000000E+00  2.63256991E+00  0.00000000E+00  0.00000000E+00  2.63256991E+00
  0.00000000E+00  0.00000000E+00  2.63256991E+00  0.00000000E+00  0.00000000E+00
  2.63256991E+00  0.00000000E+00  0.00000000E+00  2.63256991E+00  0.00000000E+00
  0.00000000E+00  2.63256991E+00  0.00000000E+00  0.00000000E+00  2.63256991E+00
  0.00000000E+00  0.00000000E+00  2.63256991E+00  0.00000000E+00  0.00000000E+00
  1.31628495E+00  2.27987331E+00  1.39601978E-16  1.31628495E+00  2.27987331E+00
  1.39601978E-16  1.31628495E+00  2.27987331E+00  1.39601978E-16  1.31628495E+00
  2.27987331E+00  1.39601978E-16  1.31628495E+00  2.27987331E+00  1.39601978E-16
  1.31628495E+00  2.27987331E+00  1.39601978E-16  1.31628495E+00  2.27987331E+00
  1.39601978E-16  1.31628495E+00  2.27987331E+00  1.39601978E-16  1.31628495E+00
  2.27987331E+00  1.39601978E-16  1.31628495E+00  2.27987331E+00  1.39601978E-16
 -1.31628495E+00  2.27987331E+00  1.39601978E-16 -1.31628495E+00  2.27987331E+00
  1.39601978E-16 -1.31628495E+00  2.27987331E+00  1.39601978E-16 -1.31628495E+00
  2.27987331E+00  1.39601978E-16 -1.31628495E+00  2.27987331E+00  1.39601978E-16
 -1.31628495E+00  2.27987331E+00  1.39601978E-16 -1.31628495E+00  2.27987331E+00
  1.39601978E-16 -1.31628495E+00  2.27987331E+00  1.39601978E-16 -1.31628495E+00
  2.27987331E+00  1.39601978E-16 -1.31628495E+00  2.27987331E+00  1.39601978E-16
 -2.63256991E+00  0.00000000E+00  0.00000000E+00 -2.63256991E+00  0.00000000E+00
  0.00000000E+00 -2.63256991E+00  0.00000000E+00  0.00000000E+00 -2.63256991E+00
  0.00000000E+00  0.00000000E+00 -2.63256991E+00  0.00000000E+00  0.00000000E+00
 -2.63256991E+00  0.00000000E+00  0.00000000E+00 -2.63256991E+00  0.00000000E+00
  0.00000000E+00 -2.63256991E+00  0.00000000E+00  0.00000000E+00 -2.63256991E+00
  0.00000000E+00  0.00000000E+00 -2.63256991E+00  0.00000000E+00  0.00000000E+00
 -1.31628495E+00 -2.27987331E+00 -1.39601978E-16 -1.31628495E+00 -2.27987331E+00
 -1.39601978E-16 -1.31628495E+00 -2.27987331E+00 -1.39601978E-16 -1.31628495E+00
 -2.27987331E+00 -1.39601978E-16 -1.31628495E+00 -2.27987331E+00 -1.39601978E-16
 -1.31628495E+00 -2.27987331E+00 -1.39601978E-16 -1.31628495E+00 -2.27987331E+00
 -1.39601978E-16 -1.31628495E+00 -2.27987331E+00 -1.39601978E-16 -1.31628495E+00
 -2.27987331E+00 -1.39601978E-16 -1.31628495E+00 -2.27987331E+00 -1.39601978E-16
  1.31628495E+00 -2.27987331E+00 -1.39601978E-16  1.31628495E+00 -2.27987331E+00
 -1.39601978E-16  1.31628495E+00 -2.27987331E+00 -1.39601978E-16  1.31628495E+00
 -2.27987331E+00 -1.39601978E-16  1.31628495E+00 -2.27987331E+00 -1.39601978E-16
  1.31628495E+00 -2.27987331E+00 -1.39601978E-16  1.31628495E+00 -2.27987331E+00
 -1.39601978E-16  1.31628495E+00 -2.27987331E+00 -1.39601978E-16  1.31628495E+00
 -2.27987331E+00 -1.39601978E-16  1.31628495E+00 -2.27987331E+00 -1.39601978E-16
  4.69242996E+00  0.00000000E+00  0.00000000E+00  4.69242996E+00  0.00000000E+00
  0.00000000E+00  4.69242996E+00  0.00000000E+00  0.00000000E+00  4.69242996E+00
  0.00000000E+00  0.00000000E+00  4.69242996E+00  0.00000000E+00  0.00000000E+00
  4.69242996E+00  0.00000000E+00  0.00000000E+00  2.34622538E+00  4.06376155E+00
  2.48833628E-16  2.34622538E+00  4.06376155E+00  2.48833628E-16  2.34622538E+00
  4.06376155E+00  2.48833628E-16  2.34622538E+00  4.06376155E+00  2.48833628E-16
  2.34622538E+00  4.06376155E+00  2.48833628E-16  2.34622538E+00  4.06376155E+00
  2.48833628E-16 -2.34622538E+00  4.06376155E+00  2.48833628E-16 -2.34622538E+00
  4.06376155E+00  2.48833628E-16 -2.34622538E+00  4.06376155E+00  2.48833628E-16
 -2.34622538E+00  4.06376155E+00  2.48833628E-16 -2.34622538E+00  4.06376155E+00
  2.48833628E-16 -2.34622538E+00  4.06376155E+00  2.48833628E-16 -4.69242996E+00
  0.00000000E+00  0.00000000E+00 -4.69242996E+00  0.00000000E+00  0.00000000E+00
 -4.69242996E+00  0.00000000E+00  0.00000000E+00 -4.69242996E+00  0.00000000E+00
  0.00000000E+00 -4.69242996E+00  0.00000000E+00  0.00000000E+00 -4.69242996E+00
  0.00000000E+00  0.00000000E+00 -2.34622538E+00 -4.06376155E+00 -2.48833628E-16
 -2.34622538E+00 -4.06376155E+00 -2.48833628E-16 -2.34622538E+00 -4.06376155E+00
 -2.48833628E-16 -2.34622538E+00 -4.06376155E+00 -2.48833628E-16 -2.34622538E+00
 -4.06376155E+00 -2.48833628E-16 -2.34622538E+00 -4.06376155E+00 -2.48833628E-16
  2.34622538E+00 -4.06376155E+00 -2.48833628E-16  2.34622538E+00 -4.06376155E+00
 -2.48833628E-16  2.34622538E+00 -4.06376155E+00 -2.48833628E-16  2.34622538E+00
 -4.06376155E+00 -2.48833628E-16  2.34622538E+00 -4.06376155E+00 -2.48833628E-16
  2.34622538E+00 -4.06376155E+00 -2.48833628E-16
Overlap Matrix                             R   N=       45150
  1.00000000E+00  1.06072740E-01  1.00000000E+00  5.16996772E-01  7.66249379E-01
  1.00000000E+00  1.47493045E-01  8.35027567E-01  5.35796369E-01  1.00000000E+00
  4.37309732E-16 -7.85423227E-16 -7.40606011E-16  0.00000000E+00  1.00000000E+00
  0.00000000E+00  0.00000000E+00  0.00000000E+00  0.00000000E+00  0.00000000E+00
  1.00000000E+00  0.00000000E+00  0.00000000E+00  0.00000000E+00  0.00000000E+00
  0.00000000E+00  0.00000000E+00  1.00000000E+00 -2.36765895E-19  0.00000000E+00
  4.80011113E-16  0.00000000E+00  6.11572820E-01  0.00000000E+00  0.00000000E+00
  1.00000000E+00  0.00000000E+00  0.00000000E+00  0.00000000E+00  0.00000000E+00
  0.00000000E+00  6.11572820E-01  0.00000000E+00  0.00000000E+00  1.00000000E+00
  0.00000000E+00  0.00000000E+00  0.00000000E+00  0.00000000E+00  0.00000000E+00
  0.00000000E+00  6.11572820E-01  0.00000000E+00  0.00000000E+00  1.00000000E+00
  3.67323941E-17 -2.88413234E-16  1.59830439E-16  0.00000000E+00  2.21926537E-01
  0.00000000E+00  0.00000000E+00  6.74476215E-01  0.00000000E+00  0.00000000E+00
  1.00000000E+00  0.00000000E+00  0.00000000E+00  0.00000000E+00  0.00000000E+00
  0.00000000E+00  2.21926537E-01  0.00000000E+00  0.00000000E+00  6.74476215E-01
  0.00000000E+00  0.00000000E+00  1.00000000E+00  0.00000000E+00  0.00000000E+00
  0.00000000E+00  0.00000000E+00  0.00000000E+00  0.00000000E+00  2.21926537E-01
  0.00000000E+00  0.00000000E+00  6.74476215E-01  0.00000000E+00  0.00000000E+00
  1.00000000E+00  1.11358649E-01  7.04773670E-01  6.28113298E-01  4.95758326E-01
  1.07536286E-15  0.00000000E+00  0.00000000E+00  0.00000000E+00  0.00000000E+00
  0.00000000E+00  0.00000000E+00  0.00000000E+00  0.00000000E+00  1.00000000E+00
  1.11358649E-01  7.04773670E-01  6.28113298E-01  4.95758326E-01  3.58454285E-16
  0.00000000E+00  0.00000000E+00  0.00000000E+00  0.00000000E+00  0.00000000E+00
  0.00000000E+00  0.00000000E+00  0.00000000E+00  3.33333333E-01  1.00000000E+00
  1.11358649E-01  7.04773670E-01  6.28113298E-01  4.95758326E-01  3.58454285E-16
  0.00000000E+00  0.00000000E+00  0.00000000E+00  0.00000000E+00  0.00000000E+00
  0.00000000E+00  0.00000000E+00  0.00000000E+00  3.33333333E-01  3.33333333E-01
  1.00000000E+00  0.00000000E+00  0.00000000E+00  0.00000000E+00  0.00000000E+00
  0.00000000E+00  6.20861034E-16  0.00000000E+00  0.00000000E+00  0.00000000E+00
  0.00000000E+00  0.00000000E+00  0.00000000E+00  0.00000000E+00  0.00000000E+00
  0.00000000E+00  0.00000000E+00  1.00000000E+00  0.00000000E+00  0.00000000E+00
  0.00000000E+00  0.00000000E+00  0.00000000E+00  0.00000000E+00  6.20861034E-16
  0.00000000E+00  0.00000000E+00  0.00000000E+00  0.00000000E+00  0.00000000E+00
  0.00000000E+00  0.00000000E+00  0.00000000E+00  0.00000000E+00  0.00000000E+00
  1.00000000E+00  0.00000000E+00  0.00000000E+00  0.00000000E+00  0.00000000E+00
  0.00000000E+00  0.00000000E+00  0.00000000E+00  0.00000000E+00  0.00000000E+00
  0.00000000E+00  0.00000000E+00  0.00000000E+00  0.00000000E+00  0.00000000E+00
  0.00000000E+00  0.00000000E+00  0.00000000E+00  0.00000000E+00  1.00000000E+00
  1.92711613E-02  5.67335451E-01  2.46437719E-01  7.08574484E-01  0.00000000E+00
  0.00000000E+00  0.00000000E+00  0.00000000E+00  0.00000000E+00  0.00000000E+00
  0.00000000E+00  0.00000000E+00  0.00000000E+00  5.31577394E-01  1.77192465E-01
  1.77192465E-01  0.00000000E+00  0.00000000E+00  0.00000000E+00  1.00000000E+00
  1.92711613E-02  5.67335451E-01  2.46437719E-01  7.08574484E-01  0.00000000E+00
  0.00000000E+00  0.00000000E+00  0.00000000E+00  0.00000000E+00  0.00000000E+00
  0.00000000E+00  0.00000000E+00  0.00000000E+00  1.77192465E-01  5.31577394E-01
  1.77192465E-01  0.00000000E+00  0.00000000E+00  0.00000000E+00  3.33333333E-01
  1.00000000E+00  1.92711613E-02  5.67335451E-01  2.46437719E-01  7.08574484E-01
  0.00000000E+00  0.00000000E+00  0.00000000E+00  0.00000000E+00  0.00000000E+00
  0.00000000E+00  0.00000000E+00  0.00000000E+00  0.00000000E+00  1.77192465E-01
  1.77192465E-01  5.31577394E-01  0.00000000E+00  0.00000000E+00  0.00000000E+00
  3.33333333E-01  3.33333333E-01  1.00000000E+00  0.00000000E+00  0.00000000E+00
  0.00000000E+00  0.00000000E+00  0.00000000E+00  0.00000000E+00  0.00000000E+00
  0.00000000E+00  0.00000000E+00  0.00000000E+00  0.00000000E+00  0.00000000E+00
  0.00000000E+00  0.00000000E+00  0.00000000E+00  0.00000000E+00  5.31577394E-01
  0.00000000E+00  0.00000000E+00  0.00000000E+00  0.00000000E+00  0.00000000E+00
  1.00000000E+00  0.00000000E+00  0.00000000E+00  0.00000000E+00  0.00000000E+00
  0.00000000E+00  0.00000000E+00  0.00000000E+00  0.00000000E+00  0.00000000E+00
  0.00000000E+00  0.00000000E+00  0.00000000E+00  0.00000000E+00  0.00000000E+00
  0.00000000E+00  0.00000000E+00  0.00000000E+00  5.31577394E-01  0.00000000E+00
  0.00000000E+00  0.00000000E+00  0.00000000E+00  0.00000000E+00  1.00000000E+00
  0.00000000E+00  0.00000000E+00  0.00000000E+00  0.00000000E+00  0.00000000E+00
  0.00000000E+00  0.00000000E+00  0.00000000E+00  0.00000000E+00  0.00000000E+00
  0.00000000E+00  0.00000000E+00  0.00000000E+00  0.00000000E+00  0.00000000E+00
  0.00000000E+00  0.00000000E+00  0.00000000E+00  5.31577394E-01  0.00000000E+00
  0.00000000E+00  0.00000000E+00  0.00000000E+00  0.00000000E+00  1.00000000E+00
  1.46694576E-17  7.86045361E-16  5.44882221E-16  6.05450683E-16  4.86265973E-01
  0.00000000E+00  0.00000000E+00  8.91819043E-01  0.00000000E+00  0.00000000E+00
  5.24639837E-01  0.00000000E+00  0.00000000E+00  0.00000000E+00  0.00000000E+00
  0.00000000E+00  0.00000000E+00  0.00000000E+00  0.00000000E+00  1.25423260E-15
  2.50846520E-16  2.50846520E-16  0.00000000E+00  0.00000000E+00  0.00000000E+00
  1.00000000E+00  0.00000000E+00  0.00000000E+00  0.00000000E+00  0.00000000E+00
  0.00000000E+00  4.86265973E-01  0.00000000E+00  0.00000000E+00  8.91819043E-01
  0.00000000E+00  0.00000000E+00  5.24639837E-01  0.00000000E+00  0.00000000E+00
  0.00000000E+00  0.00000000E+00  0.00000000E+00  0.00000000E+00  0.00000000E+00
  0.00000000E+00  0.00000000E+00  0.00000000E+00  4.34478918E-16  0.00000000E+00
  0.00000000E+00  0.00000000E+00  1.00000000E+00  0.00000000E+00  0.00000000E+00
  0.00000000E+00  0.00000000E+00  0.00000000E+00  0.00000000E+00  4.86265973E-01
  0.00000000E+00  0.00000000E+00  8.91819043E-01  0.00000000E+00  0.00000000E+00
  5.24639837E-01  0.00000000E+00  0.00000000E+00  0.00000000E+00  0.00000000E+00
  0.00000000E+00  0.00000000E+00  0.00000000E+00  0.00000000E+00  0.00000000E+00
  0.00000000E+00  4.34478918E-16  0.00000000E+00  0.00000000E+00  0.00000000E+00
  1.00000000E+00  1.09339682E-17  5.85883620E-16  4.06131228E-16  4.51276295E-16
  3.62441257E-01  0.00000000E+00  0.00000000E+00  6.64722668E-01  0.00000000E+00
  0.00000000E+00  3.91043447E-01  0.00000000E+00  0.00000000E+00  0.00000000E+00
  0.00000000E+00  0.00000000E+00  0.00000000E+00  0.00000000E+00  0.00000000E+00
  5.60909871E-16  5.60909871E-16  1.86969957E-16  0.00000000E+00  0.00000000E+00
  0.00000000E+00  4.47213595E-01  0.00000000E+00  0.00000000E+00  1.00000000E+00
  0.00000000E+00  0.00000000E+00  0.00000000E+00  0.00000000E+00  0.00000000E+00
  3.62441257E-01  0.00000000E+00  0.00000000E+00  6.64722668E-01  0.00000000E+00
  0.00000000E+00  3.91043447E-01  0.00000000E+00  0.00000000E+00  0.00000000E+00
  0.00000000E+00  0.00000000E+00  0.00000000E+00  0.00000000E+00  0.00000000E+00
  0.00000000E+00  0.00000000E+00  9.71524395E-16  0.00000000E+00  0.00000000E+00
  0.00000000E+00  4.47213595E-01  0.00000000E+00  0.00000000E+00  1.00000000E+00
  0.00000000E+00  0.00000000E+00  0.00000000E+00  0.00000000E+00  0.00000000E+00
  0.00000000E+00  3.62441257E-01  0.00000000E+00  0.00000000E+00  6.64722668E-01
  0.00000000E+00  0.00000000E+00  3.91043447E-01  0.00000000E+00  0.00000000E+00
  0.00000000E+00  0.00000000E+00  0.00000000E+00  0.00000000E+00  0.00000000E+00
  0.00000000E+00  0.00000000E+00  0.00000000E+00  9.71524395E-16  0.00000000E+00
  0.00000000E+00  0.00000000E+00  4.47213595E-01  0.00000000E+00  0.00000000E+00
  1.00000000E+00  1.09339682E-17  5.85883620E-16  4.06131228E-16  4.51276295E-16
  3.62441257E-01  0.00000000E+00  0.00000000E+00  6.64722668E-01  0.00000000E+00
  0.00000000E+00  3.91043447E-01  0.00000000E+00  0.00000000E+00  0.00000000E+00
  0.00000000E+00  0.00000000E+00  0.00000000E+00  0.00000000E+00  0.00000000E+00
  5.60909871E-16  1.86969957E-16  5.60909871E-16  0.00000000E+00  0.00000000E+00
  0.00000000E+00  4.47213595E-01  0.00000000E+00  0.00000000E+00  3.33333333E-01
  0.00000000E+00  0.00000000E+00  1.00000000E+00  0.00000000E+00  0.00000000E+00
  0.00000000E+00  0.00000000E+00  0.00000000E+00  3.62441257E-01  0.00000000E+00
  0.00000000E+00  6.64722668E-01  0.00000000E+00  0.00000000E+00  3.91043447E-01
  0.00000000E+00  0.00000000E+00  0.00000000E+00  0.00000000E+00  0.00000000E+00
  0.00000000E+00  0.00000000E+00  0.00000000E+00  0.00000000E+00  0.00000000E+00
  3.23841465E-16  0.00000000E+00  0.00000000E+00  0.00000000E+00  4.47213595E-01
  0.00000000E+00  0.00000000E+00  3.33333333E-01  0.00000000E+00  0.00000000E+00
  1.00000000E+00  0.00000000E+00  0.00000000E+00  0.00000000E+00  0.00000000E+00
  0.00000000E+00  0.00000000E+00  3.62441257E-01  0.00000000E+00  0.00000000E+00
  6.64722668E-01  0.00000000E+00  0.00000000E+00  3.91043447E-01  0.00000000E+00
  0.00000000E+00  0.00000000E+00  0.00000000E+00  0.00000000E+00  0.00000000E+00
  0.00000000E+00  0.00000000E+00  0.00000000E+00  0.00000000E+00  3.23841465E-16
  0.00000000E+00  0.00000000E+00  0.00000000E+00  4.47213595E-01  0.00000000E+00
  0.00000000E+00  3.33333333E-01  0.00000000E+00  0.00000000E+00  1.00000000E+00
  0.00000000E+00  0.00000000E+00  0.00000000E+00  0.00000000E+00  0.00000000E+00
  0.00000000E+00  0.00000000E+00  0.00000000E+00  0.00000000E+00  0.00000000E+00
  0.00000000E+00  0.00000000E+00  0.00000000E+00  0.00000000E+00  0.00000000E+00
  0.00000000E+00  0.00000000E+00  0.00000000E+00  0.00000000E+00  0.00000000E+00
  0.00000000E+00  0.00000000E+00  0.00000000E+00  0.00000000E+00  5.60909871E-16
  0.00000000E+00  0.00000000E+00  0.00000000E+00  0.00000000E+00  0.00000000E+00
  0.00000000E+00  0.00000000E+00  0.00000000E+00  0.00000000E+00  1.00000000E+00
  1.26567353E-06  3.08204249E-02  2.67299168E-03  6.19581485E-02 -1.48983581E-03
  2.58047234E-03  1.58008359E-19 -4.00412341E-02  6.93534790E-02  4.24667581E-18
 -5.56835528E-02  9.64467805E-02  5.90566205E-18  3.66684366E-03  1.03993108E-02
  3.00614071E-04 -1.00986927E-02 -6.18366586E-19  1.07104277E-18  4.14572506E-02
  1.19342173E-01  2.51483551E-03 -1.16827291E-01 -7.15360842E-18  1.23904181E-17
 -1.19593678E-02  5.46536127E-02  2.29289081E-19 -6.73346672E-02  4.07363679E-02
  2.49438313E-18 -1.61140782E-03  2.79104131E-03  7.14135088E-18 -6.97044615E-18
  1.00000000E+00  3.08204249E-02  3.05108045E-01  1.51414389E-01  4.36809091E-01
 -6.98357882E-02  1.20959181E-01  7.40661368E-18 -2.20533958E-01  3.81976170E-01
  2.33892947E-17 -2.98239529E-01  5.16566221E-01  3.16305584E-17  1.46436923E-01
  2.14698107E-01  1.12306371E-01 -1.02391697E-01 -6.26968317E-18  1.08594141E-17
  2.83458165E-01  4.97789146E-01  1.76292801E-01 -3.21496220E-01 -1.96859658E-17
  3.40971064E-17 -1.51695592E-01  3.16343177E-01  1.44474833E-17 -2.05327818E-01
  2.35788236E-01  1.44378654E-17 -1.01534654E-01  1.75863249E-01  2.17765685E-17
 -1.10080459E-17  1.06072740E-01  1.00000000E+00  2.67299168E-03  1.51414389E-01
  4.33201436E-02  2.45629765E-01 -2.87869492E-02  4.98604781E-02  3.05307375E-18
 -1.54994740E-01  2.68458870E-01  1.64383648E-17 -1.99567212E-01  3.45660687E-01
  2.11656127E-17  4.88015899E-02  1.06069824E-01  2.01675065E-02 -8.59022842E-02
 -5.25999787E-18  9.11058714E-18  1.60272706E-01  3.84370507E-01  4.82239381E-02
 -3.36146437E-01 -2.05830329E-17  3.56508728E-17 -7.83580889E-02  2.34122120E-01
  5.29778315E-18 -2.27786255E-01  1.74504239E-01  1.06853029E-17 -3.72319919E-02
  6.44877269E-02  2.41584556E-17 -2.02097133E-17  5.16996772E-01  7.66249379E-01
  1.00000000E+00  6.19581485E-02  4.36809091E-01  2.45629765E-01  6.40644855E-01
 -4.96595607E-02  8.60129160E-02  5.26677211E-18 -1.69846642E-01  2.94183130E-01
  1.80135214E-17 -3.06060618E-01  5.30112749E-01  3.24600441E-17  2.33817529E-01
  2.54677434E-01  2.23387589E-01 -3.12898323E-02 -1.91594965E-18  3.31852344E-18
  4.23931129E-01  5.20241719E-01  3.75775891E-01 -1.44465771E-01 -8.84597721E-18
  1.53216880E-17 -1.23605406E-01  2.23079357E-01  1.28340974E-17 -1.07602037E-01
  1.66273528E-01  1.01813172E-17 -9.01960305E-02  1.56224169E-01  1.14120101E-17
 -1.84603800E-18  1.47493045E-01  8.35027567E-01  5.35796369E-01  1.00000000E+00
  1.48983581E-03  6.98357882E-02  2.87869492E-02  4.96595607E-02 -1.21280889E-02
  3.97207482E-02  2.43219436E-18 -1.50832805E-03  1.39775067E-01  8.55875439E-18
  6.37812795E-02  6.84077178E-02  4.18876463E-18  1.20553266E-02  9.18422866E-02
  1.17713582E-02 -4.04614012E-02 -2.47754627E-18  8.49212440E-18 -5.43735643E-02
  1.81902290E-01  1.56945143E-02  2.19983041E-02  1.34700764E-18  1.76275851E-17
  1.08404027E-02  1.96488517E-01  3.19332354E-18 -8.27420691E-02  1.68746702E-02
  1.03327554E-18 -8.62199015E-03  3.88710090E-02  2.21428181E-17 -7.86099204E-18
  2.18654866E-16 -3.92711614E-16 -3.70303005E-16  0.00000000E+00  1.00000000E+00