Jobname.Temp
SP        U                             6-31G(d)            
Number of atoms                            I                2
Charge                                     I                0
Multiplicity                               I                3
Number of electrons                        I               16
Number of alpha electrons                  I                9
Number of beta electrons                   I                7
Atomic numbers                             I   N=           2
           8           8
Current cartesian coordinates              R   N=           6
  0.00000000E+00  0.00000000E+00 -1.14044972E+00  0.00000000E+00  0.00000000E+00
  1.14044972E+00
Nuclear charges                            R   N=           2
  8.00000000E+00  8.00000000E+00
Number of basis functions                  I               30
Number of contracted shells                I                8
Number of primitive shells                 I               22
Highest angular momentum                   I                2
Largest degree of contraction              I                6
Shell types                                I   N=           8
           0          -1          -1           2           0          -1
          -1           2
Number of primitives per shell             I   N=           8
           6           3           1           1           6           3
           1           1
Shell to atom map                          I   N=           8
           1           1           1           1           2           2
           2           2
Primitive exponents                        R   N=          22
  5.48467170E+03  8.25234950E+02  1.88046960E+02  5.29645000E+01  1.68975700E+01
  5.79963530E+00  1.55396160E+01  3.59993360E+00  1.01376180E+00  2.70005800E-01
  8.00000000E-01  5.48467170E+03  8.25234950E+02  1.88046960E+02  5.29645000E+01
  1.68975700E+01  5.79963530E+00  1.55396160E+01  3.59993360E+00  1.01376180E+00
  2.70005800E-01  8.00000000E-01
Contraction coefficients                   R   N=          22
  1.83109981E-03  1.39500985E-02  6.84450927E-02  2.32714275E-01  4.70192950E-01
  3.58520862E-01 -1.10777504E-01 -1.48026305E-01  1.13076704E+00  1.00000000E+00
  1.00000000E+00  1.83109981E-03  1.39500985E-02  6.84450927E-02  2.32714275E-01
  4.70192950E-01  3.58520862E-01 -1.10777504E-01 -1.48026305E-01  1.13076704E+00
  1.00000000E+00  1.00000000E+00
P(S=P) Contraction coefficients            R   N=          22
  0.00000000E+00  0.00000000E+00  0.00000000E+00  0.00000000E+00  0.00000000E+00
  0.00000000E+00  7.08742995E-02  3.39752798E-01  7.27158595E-01  1.00000000E+00
  0.00000000E+00  0.00000000E+00  0.00000000E+00  0.00000000E+00  0.00000000E+00
  0.00000000E+00  0.00000000E+00  7.08742995E-02  3.39752798E-01  7.27158595E-01
  1.00000000E+00  0.00000000E+00
Coordinates of each shell                  R   N=          24
  0.00000000E+00  0.00000000E+00 -1.14044972E+00  0.00000000E+00  0.00000000E+00
 -1.14044972E+00  0.00000000E+00  0.00000000E+00 -1.14044972E+00  0.00000000E+00
  0.00000000E+00 -1.14044972E+00  0.00000000E+00  0.00000000E+00  1.14044972E+00
  0.00000000E+00  0.00000000E+00  1.14044972E+00  0.00000000E+00  0.00000000E+00
  1.14044972E+00  0.00000000E+00  0.00000000E+00  1.14044972E+00
Overlap Matrix                             R   N=         465
  1.00000000E+00  2.33689906E-01  1.00000000E+00  0.00000000E+00  0.00000000E+00
  1.00000000E+00  0.00000000E+00  0.00000000E+00  0.00000000E+00  1.00000000E+00
 -7.05019380E-18  3.67654990E-16  0.00000000E+00  0.00000000E+00  1.00000000E+00
  1.67279760E-01  7.63640773E-01  0.00000000E+00  0.00000000E+00  2.39256896E-16
  1.00000000E+00  0.00000000E+00  0.00000000E+00  5.01520641E-01  0.00000000E+00
  0.00000000E+00  0.00000000E+00  1.00000000E+00  0.00000000E+00  0.00000000E+00
  0.00000000E+00  5.01520641E-01  0.00000000E+00  0.00000000E+00  0.00000000E+00
  1.00000000E+00  0.00000000E+00  1.92011415E-16  0.00000000E+00  0.00000000E+00
  5.01520641E-01  0.00000000E+00  0.00000000E+00  0.00000000E+00  1.00000000E+00
  3.35315380E-02  5.47065748E-01  0.00000000E+00  0.00000000E+00 -4.27087465E-17
  6.99014733E-01  0.00000000E+00  0.00000000E+00  1.61303242E-16  1.00000000E+00
  3.35315380E-02  5.47065748E-01  0.00000000E+00  0.00000000E+00 -4.27087465E-17
  6.99014733E-01  0.00000000E+00  0.00000000E+00  1.61303242E-16  3.33333333E-01
  1.00000000E+00  3.35315380E-02  5.47065748E-01  0.00000000E+00  0.00000000E+00
 -1.28126240E-16  6.99014733E-01  0.00000000E+00  0.00000000E+00  4.83909727E-16
  3.33333333E-01  3.33333333E-01  1.00000000E+00  0.00000000E+00  0.00000000E+00
  0.00000000E+00  0.00000000E+00  0.00000000E+00  0.00000000E+00  0.00000000E+00
  0.00000000E+00  0.00000000E+00  0.00000000E+00  0.00000000E+00  0.00000000E+00
  1.00000000E+00  0.00000000E+00  0.00000000E+00 -7.39737189E-17  0.00000000E+00
  0.00000000E+00  0.00000000E+00  2.79385411E-16  0.00000000E+00  0.00000000E+00
  0.00000000E+00  0.00000000E+00  0.00000000E+00  0.00000000E+00  1.00000000E+00
  0.00000000E+00  0.00000000E+00  0.00000000E+00 -7.39737189E-17  0.00000000E+00
  0.00000000E+00  0.00000000E+00  2.79385411E-16  0.00000000E+00  0.00000000E+00
  0.00000000E+00  0.00000000E+00  0.00000000E+00  0.00000000E+00  1.00000000E+00
  3.61168998E-08  4.12096491E-03  0.00000000E+00  0.00000000E+00  1.07734663E-02
  4.29019721E-02  0.00000000E+00  0.00000000E+00  9.84956148E-02  8.14476269E-04
  8.14476269E-04  6.25704724E-02  0.00000000E+00  0.00000000E+00  0.00000000E+00
  1.00000000E+00  4.12096491E-03  8.68100266E-02  0.00000000E+00  0.00000000E+00
  1.38766233E-01  2.56176827E-01  0.00000000E+00  0.00000000E+00  4.72987459E-01
  5.49234934E-02  5.49234934E-02  3.56419322E-01  0.00000000E+00  0.00000000E+00
  0.00000000E+00  2.33689906E-01  1.00000000E+00  0.00000000E+00  0.00000000E+00
  4.30036985E-02  0.00000000E+00  0.00000000E+00  0.00000000E+00  1.61492137E-01
  0.00000000E+00  0.00000000E+00  0.00000000E+00  0.00000000E+00  0.00000000E+00
  0.00000000E+00  1.79465787E-01  0.00000000E+00  0.00000000E+00  0.00000000E+00
  1.00000000E+00  0.00000000E+00  0.00000000E+00  0.00000000E+00  4.30036985E-02
  0.00000000E+00  0.00000000E+00  0.00000000E+00  1.61492137E-01  0.00000000E+00
  0.00000000E+00  0.00000000E+00  0.00000000E+00  0.00000000E+00  0.00000000E+00
  1.79465787E-01  0.00000000E+00  0.00000000E+00  0.00000000E+00  1.00000000E+00
 -1.07734663E-02 -1.38766233E-01  0.00000000E+00  0.00000000E+00 -1.99352722E-01
 -1.91400940E-01  0.00000000E+00  0.00000000E+00 -2.03843458E-01 -7.50517670E-02
 -7.50517670E-02 -3.75620473E-01  0.00000000E+00  0.00000000E+00  0.00000000E+00
  7.05019380E-18 -3.67654990E-16  0.00000000E+00  0.00000000E+00  1.00000000E+00
  4.29019721E-02  2.56176827E-01  0.00000000E+00  0.00000000E+00  1.91400940E-01
  4.95418268E-01  0.00000000E+00  0.00000000E+00  5.87171139E-01  2.44552548E-01
  2.44552548E-01  4.17922774E-01  0.00000000E+00  0.00000000E+00  0.00000000E+00
  1.67279760E-01  7.63640773E-01  0.00000000E+00  0.00000000E+00 -2.39256896E-16
  1.00000000E+00  0.00000000E+00  0.00000000E+00  1.61492137E-01  0.00000000E+00
  0.00000000E+00  0.00000000E+00  4.95418268E-01  0.00000000E+00  0.00000000E+00
  0.00000000E+00  0.00000000E+00  0.00000000E+00  0.00000000E+00  2.53362572E-01
  0.00000000E+00  0.00000000E+00  0.00000000E+00  5.01520641E-01  0.00000000E+00
  0.00000000E+00  0.00000000E+00  1.00000000E+00  0.00000000E+00  0.00000000E+00
  0.00000000E+00  1.61492137E-01  0.00000000E+00  0.00000000E+00  0.00000000E+00
  4.95418268E-01  0.00000000E+00  0.00000000E+00  0.00000000E+00  0.00000000E+00
  0.00000000E+00  0.00000000E+00  2.53362572E-01  0.00000000E+00  0.00000000E+00
  0.00000000E+00  5.01520641E-01  0.00000000E+00  0.00000000E+00  0.00000000E+00
  1.00000000E+00 -9.84956148E-02 -4.72987459E-01  0.00000000E+00  0.00000000E+00
 -2.03843458E-01 -5.87171139E-01  0.00000000E+00  0.00000000E+00 -2.00498634E-01
 -4.33409799E-01 -4.33409799E-01 -4.48108380E-01  0.00000000E+00  0.00000000E+00
  0.00000000E+00  0.00000000E+00 -1.92011415E-16  0.00000000E+00  0.00000000E+00
  5.01520641E-01  0.00000000E+00  0.00000000E+00  0.00000000E+00  1.00000000E+00
  8.14476269E-04  5.49234934E-02  0.00000000E+00  0.00000000E+00  7.50517670E-02
  2.44552548E-01  0.00000000E+00  0.00000000E+00  4.33409799E-01  1.24805233E-01
  4.16017445E-02  2.14748279E-01  0.00000000E+00  0.00000000E+00  0.00000000E+00
  3.35315380E-02  5.47065748E-01  0.00000000E+00  0.00000000E+00  4.27087465E-17
  6.99014733E-01  0.00000000E+00  0.00000000E+00 -1.61303242E-16  1.00000000E+00
  8.14476269E-04  5.49234934E-02  0.00000000E+00  0.00000000E+00  7.50517670E-02
  2.44552548E-01  0.00000000E+00  0.00000000E+00  4.33409799E-01  4.16017445E-02
  1.24805233E-01  2.14748279E-01  0.00000000E+00  0.00000000E+00  0.00000000E+00
  3.35315380E-02  5.47065748E-01  0.00000000E+00  0.00000000E+00  4.27087465E-17
  6.99014733E-01  0.00000000E+00  0.00000000E+00 -1.61303242E-16  3.33333333E-01
  1.00000000E+00  6.25704724E-02  3.56419322E-01  0.00000000E+00  0.00000000E+00
  3.75620473E-01  4.17922774E-01  0.00000000E+00  0.00000000E+00  4.48108380E-01
  2.14748279E-01  2.14748279E-01  4.99148349E-01  0.00000000E+00  0.00000000E+00
  0.00000000E+00  3.35315380E-02  5.47065748E-01  0.00000000E+00  0.00000000E+00
  1.28126240E-16  6.99014733E-01  0.00000000E+00  0.00000000E+00 -4.83909727E-16
  3.33333333E-01  3.33333333E-01  1.00000000E+00  0.00000000E+00  0.00000000E+00
  0.00000000E+00  0.00000000E+00  0.00000000E+00  0.00000000E+00  0.00000000E+00
  0.00000000E+00  0.00000000E+00  0.00000000E+00  0.00000000E+00  0.00000000E+00
  1.24805233E-01  0.00000000E+00  0.00000000E+00  0.00000000E+00  0.00000000E+00
  0.00000000E+00  0.00000000E+00  0.00000000E+00  0.00000000E+00  0.00000000E+00
  0.00000000E+00  0.00000000E+00  0.00000000E+00  0.00000000E+00  0.00000000E+00
  1.00000000E+00  0.00000000E+00  0.00000000E+00 -1.79465787E-01  0.00000000E+00
  0.00000000E+00  0.00000000E+00 -2.53362572E-01  0.00000000E+00  0.00000000E+00
  0.00000000E+00  0.00000000E+00  0.00000000E+00  0.00000000E+00 -3.94634370E-01
  0.00000000E+00  0.00000000E+00  0.00000000E+00  7.39737189E-17  0.00000000E+00
  0.00000000E+00  0.00000000E+00 -2.79385411E-16  0.00000000E+00  0.00000000E+00
  0.00000000E+00  0.00000000E+00  0.00000000E+00  0.00000000E+00  1.00000000E+00
  0.00000000E+00  0.00000000E+00  0.00000000E+00 -1.79465787E-01  0.00000000E+00
  0.00000000E+00  0.00000000E+00 -2.53362572E-01  0.00000000E+00  0.00000000E+00
  0.00000000E+00  0.00000000E+00  0.00000000E+00  0.00000000E+00 -3.94634370E-01
  0.00000000E+00  0.00000000E+00  0.00000000E+00  7.39737189E-17  0.00000000E+00
  0.00000000E+00  0.00000000E+00 -2.79385411E-16  0.00000000E+00  0.00000000E+00
  0.00000000E+00  0.00000000E+00  0.00000000E+00  0.00000000E+00  1.00000000E+00
Core Hamiltonian Matrix                    R   N=         465
 -3.54484493E+01 -7.92888748E+00 -1.23273391E+01  0.00000000E+00  0.00000000E+00
 -1.07750063E+01  0.00000000E+00  0.00000000E+00  0.00000000E+00 -1.07750063E+01
 -1.11804324E-01 -7.62762552E-01  0.00000000E+00  0.00000000E+00 -1.11248713E+01
 -5.77383439E+00 -9.22763330E+00  0.00000000E+00  0.00000000E+00 -7.39546591E-01
 -9.67361723E+00  0.00000000E+00  0.00000000E+00 -4.86898228E+00  0.00000000E+00
  0.00000000E+00  0.00000000E+00 -6.65041507E+00  0.00000000E+00  0.00000000E+00
  0.00000000E+00 -4.86898228E+00  0.00000000E+00  0.00000000E+00  0.00000000E+00
 -6.65041507E+00 -1.54064341E-02 -5.04016254E-01  0.00000000E+00  0.00000000E+00
 -5.22219138E+00 -1.28478369E+00  0.00000000E+00  0.00000000E+00 -7.87683677E+00
 -1.17990036E+00 -5.87467659E+00  0.00000000E+00  0.00000000E+00 -2.93476779E-01
 -6.25521200E+00  0.00000000E+00  0.00000000E+00 -3.82445318E-01 -7.48046756E+00
 -1.17990036E+00 -5.87467659E+00  0.00000000E+00  0.00000000E+00 -2.93476779E-01
 -6.25521200E+00  0.00000000E+00  0.00000000E+00 -3.82445318E-01 -3.20460030E+00
 -7.48046756E+00 -1.18434038E+00 -6.18682736E+00  0.00000000E+00  0.00000000E+00
 -1.13747826E+00 -6.88361145E+00  0.00000000E+00  0.00000000E+00 -1.75714556E+00
 -3.35215916E+00 -3.35215916E+00 -8.78459383E+00  0.00000000E+00  0.00000000E+00
  0.00000000E+00  0.00000000E+00  0.00000000E+00  0.00000000E+00  0.00000000E+00
  0.00000000E+00  0.00000000E+00  0.00000000E+00  0.00000000E+00  0.00000000E+00
 -6.41380089E+00  0.00000000E+00  0.00000000E+00 -5.08316692E-01  0.00000000E+00
  0.00000000E+00  0.00000000E+00 -6.62414722E-01  0.00000000E+00  0.00000000E+00
  0.00000000E+00  0.00000000E+00  0.00000000E+00  0.00000000E+00 -6.85647747E+00
  0.00000000E+00  0.00000000E+00  0.00000000E+00 -5.08316692E-01  0.00000000E+00
  0.00000000E+00  0.00000000E+00 -6.62414722E-01  0.00000000E+00  0.00000000E+00
  0.00000000E+00  0.00000000E+00  0.00000000E+00  0.00000000E+00 -6.85647747E+00
 -3.34806947E-06 -1.47513726E-01  0.00000000E+00  0.00000000E+00 -3.81357427E-01
 -1.48874040E+00  0.00000000E+00  0.00000000E+00 -3.40805530E+00 -3.05721883E-02
 -3.05721883E-02 -2.18034497E+00  0.00000000E+00  0.00000000E+00  0.00000000E+00
 -3.54484493E+01 -1.47513726E-01 -1.24325075E+00  0.00000000E+00  0.00000000E+00
 -1.90500473E+00 -3.27382652E+00  0.00000000E+00  0.00000000E+00 -5.87988969E+00
 -7.10949628E-01 -7.10949628E-01 -4.64110359E+00  0.00000000E+00  0.00000000E+00
  0.00000000E+00 -7.92888748E+00 -1.23273391E+01  0.00000000E+00  0.00000000E+00
 -5.31202042E-01  0.00000000E+00  0.00000000E+00  0.00000000E+00 -1.67013523E+00
  0.00000000E+00  0.00000000E+00  0.00000000E+00  0.00000000E+00  0.00000000E+00
  0.00000000E+00 -1.95015433E+00  0.00000000E+00  0.00000000E+00  0.00000000E+00
 -1.07750063E+01  0.00000000E+00  0.00000000E+00  0.00000000E+00 -5.31202042E-01
  0.00000000E+00  0.00000000E+00  0.00000000E+00 -1.67013523E+00  0.00000000E+00
  0.00000000E+00  0.00000000E+00  0.00000000E+00  0.00000000E+00  0.00000000E+00
 -1.95015433E+00  0.00000000E+00  0.00000000E+00  0.00000000E+00 -1.07750063E+01
  3.81357427E-01  1.90500473E+00  0.00000000E+00  0.00000000E+00  2.58484154E+00
  2.42678832E+00  0.00000000E+00  0.00000000E+00  2.56972940E+00  9.33253670E-01
  9.33253670E-01  4.48054601E+00  0.00000000E+00  0.00000000E+00  0.00000000E+00
  1.11804324E-01  7.62762552E-01  0.00000000E+00  0.00000000E+00 -1.11248713E+01
 -1.48874040E+00 -3.27382652E+00  0.00000000E+00  0.00000000E+00 -2.42678832E+00
 -5.20391787E+00  0.00000000E+00  0.00000000E+00 -6.00915863E+00 -2.37813975E+00
 -2.37813975E+00 -4.92322084E+00  0.00000000E+00  0.00000000E+00  0.00000000E+00
 -5.77383439E+00 -9.22763330E+00  0.00000000E+00  0.00000000E+00  7.39546591E-01
 -9.67361723E+00  0.00000000E+00  0.00000000E+00 -1.67013523E+00  0.00000000E+00
  0.00000000E+00  0.00000000E+00 -3.60767912E+00  0.00000000E+00  0.00000000E+00
  0.00000000E+00  0.00000000E+00  0.00000000E+00  0.00000000E+00 -2.26635924E+00
  0.00000000E+00  0.00000000E+00  0.00000000E+00 -4.86898228E+00  0.00000000E+00
  0.00000000E+00  0.00000000E+00 -6.65041507E+00  0.00000000E+00  0.00000000E+00
  0.00000000E+00 -1.67013523E+00  0.00000000E+00  0.00000000E+00  0.00000000E+00
 -3.60767912E+00  0.00000000E+00  0.00000000E+00  0.00000000E+00  0.00000000E+00
  0.00000000E+00  0.00000000E+00 -2.26635924E+00  0.00000000E+00  0.00000000E+00
  0.00000000E+00 -4.86898228E+00  0.00000000E+00  0.00000000E+00  0.00000000E+00
 -6.65041507E+00  3.40805530E+00  5.87988969E+00  0.00000000E+00  0.00000000E+00
  2.56972940E+00  6.00915863E+00  0.00000000E+00  0.00000000E+00  2.19534392E+00
  4.01563421E+00  4.01563421E+00  4.78698427E+00  0.00000000E+00  0.00000000E+00
  0.00000000E+00  1.54064341E-02  5.04016254E-01  0.00000000E+00  0.00000000E+00
 -5.22219138E+00  1.28478369E+00  0.00000000E+00  0.00000000E+00 -7.87683677E+00
 -3.05721883E-02 -7.10949628E-01  0.00000000E+00  0.00000000E+00 -9.33253670E-01
 -2.37813975E+00  0.00000000E+00  0.00000000E+00 -4.01563421E+00 -1.17797351E+00
 -4.81408226E-01 -2.38960989E+00  0.00000000E+00  0.00000000E+00  0.00000000E+00
 -1.17990036E+00 -5.87467659E+00  0.00000000E+00  0.00000000E+00  2.93476779E-01
 -6.25521200E+00  0.00000000E+00  0.00000000E+00  3.82445318E-01 -7.48046756E+00
 -3.05721883E-02 -7.10949628E-01  0.00000000E+00  0.00000000E+00 -9.33253670E-01
 -2.37813975E+00  0.00000000E+00  0.00000000E+00 -4.01563421E+00 -4.81408226E-01
 -1.17797351E+00 -2.38960989E+00  0.00000000E+00  0.00000000E+00  0.00000000E+00
 -1.17990036E+00 -5.87467659E+00  0.00000000E+00  0.00000000E+00  2.93476779E-01
 -6.25521200E+00  0.00000000E+00  0.00000000E+00  3.82445318E-01 -3.20460030E+00
 -7.48046756E+00 -2.18034497E+00 -4.64110359E+00  0.00000000E+00  0.00000000E+00
 -4.48054601E+00 -4.92322084E+00  0.00000000E+00  0.00000000E+00 -4.78698427E+00
 -2.38960989E+00 -2.38960989E+00 -5.51198602E+00  0.00000000E+00  0.00000000E+00
  0.00000000E+00 -1.18434038E+00 -6.18682736E+00  0.00000000E+00  0.00000000E+00
  1.13747826E+00 -6.88361145E+00  0.00000000E+00  0.00000000E+00  1.75714556E+00
 -3.35215916E+00 -3.35215916E+00 -8.78459383E+00  0.00000000E+00  0.00000000E+00
  0.00000000E+00  0.00000000E+00  0.00000000E+00  0.00000000E+00  0.00000000E+00
  0.00000000E+00  0.00000000E+00  0.00000000E+00  0.00000000E+00  0.00000000E+00
 -1.04484793E+00  0.00000000E+00  0.00000000E+00  0.00000000E+00  0.00000000E+00
  0.00000000E+00  0.00000000E+00  0.00000000E+00  0.00000000E+00  0.00000000E+00
  0.00000000E+00  0.00000000E+00  0.00000000E+00  0.00000000E+00  0.00000000E+00
 -6.41380089E+00  0.00000000E+00  0.00000000E+00  1.95015433E+00  0.00000000E+00
  0.00000000E+00  0.00000000E+00  2.26635924E+00  0.00000000E+00  0.00000000E+00
  0.00000000E+00  0.00000000E+00  0.00000000E+00  0.00000000E+00  3.37796021E+00
  0.00000000E+00  0.00000000E+00  0.00000000E+00  5.08316692E-01  0.00000000E+00
  0.00000000E+00  0.00000000E+00  6.62414722E-01  0.00000000E+00  0.00000000E+00
  0.00000000E+00  0.00000000E+00  0.00000000E+00  0.00000000E+00 -6.85647747E+00
  0.00000000E+00  0.00000000E+00  0.00000000E+00  1.95015433E+00  0.00000000E+00
  0.00000000E+00  0.00000000E+00  2.26635924E+00  0.00000000E+00  0.00000000E+00
  0.00000000E+00  0.00000000E+00  0.00000000E+00  0.00000000E+00  3.37796021E+00
  0.00000000E+00  0.00000000E+00  0.00000000E+00  5.08316692E-01  0.00000000E+00
  0.00000000E+00  0.00000000E+00  6.62414722E-01  0.00000000E+00  0.00000000E+00
  0.00000000E+00  0.00000000E+00  0.00000000E+00  0.00000000E+00 -6.85647747E+00
Localized Alpha MO Coefficients (IBO)      R   N=         270
  1.43914153E-02 -4.41074497E-02  1.67511541E-02 -2.89521802E-15 -7.61266394E-02
 -5.85454422E-02  3.60252279E-02 -5.26807829E-15 -6.42929204E-02 -1.33523810E-03
 -1.33523810E-03  4.79596995E-03 -4.43411631E-20 -1.11386281E-02  1.31896656E-15
  4.00994133E-01  3.68463218E-01 -3.08504183E-01  4.20009624E-14  2.05985457E-01
  4.24682078E-01 -1.89771504E-01  2.54438386E-14  9.12437652E-02 -2.40690101E-03
 -2.40690099E-03 -2.30551783E-02 -1.97022375E-16  7.47229956E-03 -8.62375115E-16
 -9.13197638E-01  1.98355805E-01  2.71674146E-01  2.01433004E-13 -1.02669902E-01
  2.39656976E-01  1.67313231E-01  1.24082281E-13 -4.71727200E-02  7.35342807E-03
  7.35342808E-03 -2.71876428E-03  1.08890731E-16  6.49175182E-03  4.49555315E-15
  5.17918665E-03 -1.57490305E-02 -1.71090050E-02 -1.34842798E-14  2.44308628E-02
 -3.01014703E-02 -3.31640071E-02 -2.48805910E-14  2.80688389E-02 -1.65582344E-03
 -1.65582345E-03  5.57609318E-03  1.80150375E-16 -9.74696021E-03 -6.84259642E-15
  4.00994133E-01  3.68463218E-01  3.08504183E-01  2.44441772E-14 -2.05985457E-01
  4.24682078E-01  1.89771504E-01  1.49425794E-14 -9.12437652E-02 -2.40690101E-03
 -2.40690099E-03 -2.30551783E-02  8.83575315E-17  7.47229956E-03  8.06915090E-16
  1.43914153E-02 -4.41074497E-02 -1.67511541E-02 -1.78637590E-15  7.61266394E-02
 -5.85454422E-02 -3.60252279E-02 -2.85906826E-15  6.42929204E-02 -1.33523810E-03
 -1.33523810E-03  4.79596995E-03  1.24625070E-16 -1.11386281E-02 -1.26223841E-15
 -5.17918665E-03  1.57490305E-02 -1.71090050E-02 -7.23799408E-15  2.44308628E-02
  3.01014703E-02 -3.31640071E-02 -1.32166535E-14  2.80688389E-02  1.65582344E-03
  1.65582345E-03 -5.57609318E-03  7.53484495E-17  9.74696021E-03  3.48375354E-15
  9.13197638E-01 -1.98355805E-01  2.71674146E-01  1.06436108E-13 -1.02669902E-01
 -2.39656976E-01  1.67313231E-01  6.52467467E-14 -4.71727200E-02 -7.35342807E-03
 -7.35342808E-03  2.71876428E-03 -4.23285539E-17 -6.49175182E-03 -2.10961441E-15
  1.01609767E-02 -3.54943921E-02 -4.28384973E-02 -5.30108040E-16 -5.06280714E-02
 -4.91422951E-02 -7.58492815E-02 -1.05507895E-15 -4.60811987E-02 -1.43130406E-03
 -1.43130406E-03  5.03898488E-03 -1.57241538E-17  2.11785159E-02  3.68478990E-16
 -2.09259390E-01  2.81632839E-01  5.94265030E-01  9.64767165E-15  1.55453704E-01
  3.31061008E-01  3.66436757E-01  6.11956972E-15  6.91598357E-02  2.16079818E-03
  2.16079820E-03 -1.35260239E-02  2.56400070E-16 -1.39969863E-02 -2.26252928E-16
 -2.41386340E-16  6.70515562E-16  2.22645734E-15 -4.88210561E-02  1.33300891E-15
  4.41027681E-16  4.04236672E-15 -9.02345646E-02  9.68811245E-16 -8.96051754E-17
 -1.30414169E-16  3.97345981E-16  1.82214047E-16 -9.85537406E-16  2.58384271E-02
 -1.54600767E-13  4.26007378E-15 -3.08579551E-14  7.22612168E-01  1.68000312E-15
  5.36915136E-15 -1.85273716E-14  4.45304998E-01  1.80859902E-15  1.19326843E-15
  1.42870656E-15  9.87666088E-16 -1.22076400E-16  8.14620984E-16 -1.71427124E-02
  4.07654886E-02 -2.15660587E-01  3.28416897E-03  3.28284837E-16 -4.31220506E-01
  1.12855215E-03  2.27991530E-03  2.82519994E-16 -1.67902139E-01  5.56332183E-03
  5.56332183E-03 -4.46636540E-02  2.66687004E-17 -3.70196611E-05 -5.75516072E-17
  4.07654886E-02 -2.15660587E-01 -3.28416897E-03 -3.01821041E-16  4.31220506E-01
  1.12855215E-03 -2.27991530E-03 -4.03638716E-16  1.67902139E-01  5.56332183E-03
  5.56332183E-03 -4.46636540E-02  4.75433120E-17 -3.70196611E-05 -2.36454979E-16
 -2.09259390E-01  2.81632839E-01 -5.94265030E-01 -1.11970571E-15 -1.55453704E-01
  3.31061008E-01 -3.66436757E-01 -5.86486666E-16 -6.91598357E-02  2.16079818E-03
  2.16079820E-03 -1.35260239E-02 -2.37245742E-16 -1.39969863E-02 -1.20439638E-16
  1.01609767E-02 -3.54943921E-02  4.28384973E-02 -1.37947040E-16  5.06280714E-02
 -4.91422951E-02  7.58492815E-02 -5.52203408E-17  4.60811987E-02 -1.43130406E-03
 -1.43130406E-03  5.03898488E-03  2.09702760E-18  2.11785159E-02  1.48416267E-16
  2.41090445E-13 -6.73053816E-14 -8.76879683E-14  7.22612168E-01  3.59845039E-14
 -7.95191540E-14 -5.38113561E-14  4.45304998E-01  1.72066924E-14 -1.92600245E-15
 -2.19675817E-15  1.30704554E-15 -1.98924537E-17 -2.30765689E-15  1.71427124E-02
 -2.19310048E-15  5.87478759E-15  5.26978775E-15 -4.88210561E-02 -9.18637901E-15
  9.47861040E-15  1.07402065E-14 -9.02345646E-02 -9.62778302E-15  6.03616806E-16
  6.21441316E-16 -1.80145530E-15  3.21368242E-17  3.21835503E-15 -2.58384271E-02
Localized Beta  MO Coefficients (IBO)      R   N=         270
  1.43914153E-02 -4.41074497E-02  1.67511541E-02 -2.89521802E-15 -7.61266394E-02
 -5.85454422E-02  3.60252279E-02 -5.26807829E-15 -6.42929204E-02 -1.33523810E-03
 -1.33523810E-03  4.79596995E-03 -4.43411631E-20 -1.11386281E-02  1.31896656E-15
  4.00994133E-01  3.68463218E-01 -3.08504183E-01  4.20009624E-14  2.05985457E-01
  4.24682078E-01 -1.89771504E-01  2.54438386E-14  9.12437652E-02 -2.40690101E-03
 -2.40690099E-03 -2.30551783E-02 -1.97022375E-16  7.47229956E-03 -8.62375115E-16
 -9.13197638E-01  1.98355805E-01  2.71674146E-01  2.01433004E-13 -1.02669902E-01
  2.39656976E-01  1.67313231E-01  1.24082281E-13 -4.71727200E-02  7.35342807E-03
  7.35342808E-03 -2.71876428E-03  1.08890731E-16  6.49175182E-03  4.49555315E-15
  5.17918665E-03 -1.57490305E-02 -1.71090050E-02 -1.34842798E-14  2.44308628E-02
 -3.01014703E-02 -3.31640071E-02 -2.48805910E-14  2.80688389E-02 -1.65582344E-03
 -1.65582345E-03  5.57609318E-03  1.80150375E-16 -9.74696021E-03 -6.84259642E-15
  4.00994133E-01  3.68463218E-01  3.08504183E-01  2.44441772E-14 -2.05985457E-01
  4.24682078E-01  1.89771504E-01  1.49425794E-14 -9.12437652E-02 -2.40690101E-03
 -2.40690099E-03 -2.30551783E-02  8.83575315E-17  7.47229956E-03  8.06915090E-16
  1.43914153E-02 -4.41074497E-02 -1.67511541E-02 -1.78637590E-15  7.61266394E-02
 -5.85454422E-02 -3.60252279E-02 -2.85906826E-15  6.42929204E-02 -1.33523810E-03
 -1.33523810E-03  4.79596995E-03  1.24625070E-16 -1.11386281E-02 -1.26223841E-15
 -5.17918665E-03  1.57490305E-02 -1.71090050E-02 -7.23799408E-15  2.44308628E-02
  3.01014703E-02 -3.31640071E-02 -1.32166535E-14  2.80688389E-02  1.65582344E-03
  1.65582345E-03 -5.57609318E-03  7.53484495E-17  9.74696021E-03  3.48375354E-15
  9.13197638E-01 -1.98355805E-01  2.71674146E-01  1.06436108E-13 -1.02669902E-01
 -2.39656976E-01  1.67313231E-01  6.52467467E-14 -4.71727200E-02 -7.35342807E-03
 -7.35342808E-03  2.71876428E-03 -4.23285539E-17 -6.49175182E-03 -2.10961441E-15
  1.01609767E-02 -3.54943921E-02 -4.28384973E-02 -5.30108040E-16 -5.06280714E-02
 -4.91422951E-02 -7.58492815E-02 -1.05507895E-15 -4.60811987E-02 -1.43130406E-03
 -1.43130406E-03  5.03898488E-03 -1.57241538E-17  2.11785159E-02  3.68478990E-16
 -2.09259390E-01  2.81632839E-01  5.94265030E-01  9.64767165E-15  1.55453704E-01
  3.31061008E-01  3.66436757E-01  6.11956972E-15  6.91598357E-02  2.16079818E-03
  2.16079820E-03 -1.35260239E-02  2.56400070E-16 -1.39969863E-02 -2.26252928E-16
 -2.41386340E-16  6.70515562E-16  2.22645734E-15 -4.88210561E-02  1.33300891E-15
  4.41027681E-16  4.04236672E-15 -9.02345646E-02  9.68811245E-16 -8.96051754E-17
 -1.30414169E-16  3.97345981E-16  1.82214047E-16 -9.85537406E-16  2.58384271E-02
 -1.54600767E-13  4.26007378E-15 -3.08579551E-14  7.22612168E-01  1.68000312E-15
  5.36915136E-15 -1.85273716E-14  4.45304998E-01  1.80859902E-15  1.19326843E-15
  1.42870656E-15  9.87666088E-16 -1.22076400E-16  8.14620984E-16 -1.71427124E-02
  4.07654886E-02 -2.15660587E-01  3.28416897E-03  3.28284837E-16 -4.31220506E-01
  1.12855215E-03  2.27991530E-03  2.82519994E-16 -1.67902139E-01  5.56332183E-03
  5.56332183E-03 -4.46636540E-02  2.66687004E-17 -3.70196611E-05 -5.75516072E-17
  4.07654886E-02 -2.15660587E-01 -3.28416897E-03 -3.01821041E-16  4.31220506E-01
  1.12855215E-03 -2.27991530E-03 -4.03638716E-16  1.67902139E-01  5.56332183E-03
  5.56332183E-03 -4.46636540E-02  4.75433120E-17 -3.70196611E-05 -2.36454979E-16
 -2.09259390E-01  2.81632839E-01 -5.94265030E-01 -1.11970571E-15 -1.55453704E-01
  3.31061008E-01 -3.66436757E-01 -5.86486666E-16 -6.91598357E-02  2.16079818E-03
  2.16079820E-03 -1.35260239E-02 -2.37245742E-16 -1.39969863E-02 -1.20439638E-16
  1.01609767E-02 -3.54943921E-02  4.28384973E-02 -1.37947040E-16  5.06280714E-02
 -4.91422951E-02  7.58492815E-02 -5.52203408E-17  4.60811987E-02 -1.43130406E-03
 -1.43130406E-03  5.03898488E-03  2.09702760E-18  2.11785159E-02  1.48416267E-16
  2.41090445E-13 -6.73053816E-14 -8.76879683E-14  7.22612168E-01  3.59845039E-14
 -7.95191540E-14 -5.38113561E-14  4.45304998E-01  1.72066924E-14 -1.92600245E-15
 -2.19675817E-15  1.30704554E-15 -1.98924537E-17 -2.30765689E-15  1.71427124E-02
 -2.19310048E-15  5.87478759E-15  5.26978775E-15 -4.88210561E-02 -9.18637901E-15
  9.47861040E-15  1.07402065E-14 -9.02345646E-02 -9.62778302E-15  6.03616806E-16
  6.21441316E-16 -1.80145530E-15  3.21368242E-17  3.21835503E-15 -2.58384271E-02
Localized Alpha MO Coefficients (OSLO)     R   N=         270
  9.98812573E-01  1.13155763E-02 -4.93624884E-15 -9.68717008E-10  4.65622458E-03
 -5.05024748E-03 -3.31177655E-15 -5.26383491E-10  2.71848413E-03 -7.84374692E-03
 -7.84374692E-03 -7.30460723E-03 -2.00630258E-17 -4.62814028E-16 -5.46600705E-11
  4.24278786E-04  4.30404187E-04  1.95477470E-15 -7.78634095E-10  1.49777863E-03
 -1.03315582E-03  1.60329725E-15 -3.94425264E-10  1.08982764E-03  6.31680201E-04
  6.31680201E-04 -1.13117461E-03 -8.53256505E-17  2.90030311E-16  5.68025735E-11
  1.37748408E-09  1.67045823E-11 -3.53048857E-06 -7.22612168E-01  2.54978038E-12
 -9.62696716E-12 -2.15923213E-06 -4.45304998E-01  9.31994008E-13 -9.17838002E-12
 -9.17810925E-12 -1.29856043E-11  1.98911057E-17 -9.11191833E-08 -1.71427124E-02
  2.57880266E-09  2.98018764E-11  4.23023792E-08  4.88210561E-02 -9.95520829E-12
 -1.44590178E-11  3.21048519E-07  9.02345646E-02 -5.51562464E-12 -1.93765606E-11
 -1.93765786E-11 -2.04139233E-11 -3.21374875E-17  1.31392236E-07  2.58384271E-02
  4.24278786E-04  4.30404187E-04 -8.64127917E-15 -1.84786658E-09 -1.49777863E-03
 -1.03315582E-03 -5.41142445E-15 -1.10181856E-09 -1.08982764E-03  6.31680201E-04
  6.31680201E-04 -1.13117461E-03  6.39977559E-17  1.89360253E-16 -6.04072196E-11
  9.98812573E-01  1.13155763E-02  6.28501381E-16 -3.16640628E-10 -4.65622458E-03
 -5.05024748E-03  9.48129291E-16 -3.88210441E-11 -2.71848413E-03 -7.84374692E-03
 -7.84374692E-03 -7.30460723E-03 -1.68953938E-16  1.95132464E-16  7.76674927E-11
  1.12083421E-09  1.29175295E-11  8.67369783E-08  4.88210561E-02  4.45197134E-12
 -6.19979691E-12 -8.25487581E-08  9.02345646E-02  2.48731487E-12 -8.47454463E-12
 -8.47450366E-12 -8.77869529E-12 -1.82213938E-16  6.30984653E-08 -2.58384271E-02
  5.15607929E-10  6.31838822E-12  1.62054607E-06 -7.22612168E-01 -7.22072170E-13
 -3.76336157E-12  9.82242628E-07 -4.45304998E-01 -1.80611494E-13 -3.33666106E-12
 -3.33689657E-12 -5.03625891E-12  1.22077065E-16 -4.58091319E-08  1.71427124E-02
 -6.35611484E-04  2.00867136E-06  7.26789196E-01 -3.53474566E-06 -8.37090925E-05
  5.16594807E-05  4.47659334E-01 -2.19408284E-06 -3.34037290E-05  5.22948026E-06
  5.22948026E-06 -2.63332832E-06  2.75710122E-16  1.73404261E-02 -7.67556022E-08
 -1.08058588E-03 -5.26395427E-05 -4.64755473E-02  4.27992523E-07  7.03257097E-05
 -5.66681392E-06 -8.91516936E-02  5.56904549E-07  3.16347261E-05  8.73738839E-06
  8.73738839E-06  3.22291242E-06  1.21572173E-16 -2.60567860E-02  1.21424200E-07
 -1.08058588E-03 -5.26395427E-05  4.64755473E-02  2.92828404E-07 -7.03257096E-05