Jobname.Temp
SP        U                             6-31G(d)            
Number of atoms                            I                2
Charge                                     I                0
Multiplicity                               I                1
Number of electrons                        I                2
Number of alpha electrons                  I                1
Number of beta electrons                   I                1
Atomic numbers                             I   N=           2
           1           1
Current cartesian coordinates              R   N=           6
  0.00000000E+00  0.00000000E+00 -2.83458919E+00  0.00000000E+00  0.00000000E+00
  2.83458919E+00
Nuclear charges                            R   N=           2
  1.00000000E+00  1.00000000E+00
Number of basis functions                  I                4
Number of contracted shells                I                4
Number of primitive shells                 I                8
Highest angular momentum                   I                0
Largest degree of contraction              I                3
Shell types                                I   N=           4
           0           0           0           0
Number of primitives per shell             I   N=           4
           3           1           3           1
Shell to atom map                          I   N=           4
           1           1           2           2
Primitive exponents                        R   N=           8
  1.87311370E+01  2.82539370E+00  6.40121700E-01  1.61277800E-01  1.87311370E+01
  2.82539370E+00  6.40121700E-01  1.61277800E-01
Contraction coefficients                   R   N=           8
  3.34945995E-02  2.34726947E-01  8.13757318E-01  1.00000000E+00  3.34945995E-02
  2.34726947E-01  8.13757318E-01  1.00000000E+00
Coordinates of each shell                  R   N=          12
  0.00000000E+00  0.00000000E+00 -2.83458919E+00  0.00000000E+00  0.00000000E+00
 -2.83458919E+00  0.00000000E+00  0.00000000E+00  2.83458919E+00  0.00000000E+00
  0.00000000E+00  2.83458919E+00
Overlap Matrix                             R   N=          10
  1.00000000E+00  6.58292049E-01  1.00000000E+00  2.25854090E-05  9.84627914E-03
  1.00000000E+00  9.84627914E-03  7.48925653E-02  6.58292049E-01  1.00000000E+00
Core Hamiltonian Matrix                    R   N=          10
 -4.33944900E-01 -5.98693913E-01 -5.75326195E-01 -1.43113348E-04 -1.70100538E-02
 -4.33944900E-01 -1.70100538E-02 -6.48230455E-02 -5.98693913E-01 -5.75326195E-01
Localized Alpha MO Coefficients (IBO)      R   N=           4
  4.29296016E-01  6.60976029E-01  7.10837099E-03  3.37732722E-02
Localized Beta  MO Coefficients (IBO)      R   N=           4
  4.29296016E-01  6.60976029E-01  7.10837099E-03  3.37732722E-02
Localized Alpha MO Coefficients (OSLO)     R   N=           4
  4.29296016E-01  6.60976029E-01  7.10837099E-03  3.37732722E-02
Localized Beta  MO Coefficients (OSLO)     R   N=           4
  7.10822935E-03  3.37728778E-02  4.29295408E-01  6.60976628E-01
Number of independent functions            I                4
Alpha MO coefficients                      R   N=          16
  4.29296016E-01  6.60976029E-01  7.10837099E-03  3.37732722E-02 -5.56625186E-02
 -3.77569896E-02  2.60237983E-01  8.08476121E-01 -1.21946996E+00  1.11038032E+00
 -2.84731878E-01  1.53203390E-01  3.11896940E-01 -3.39331447E-01 -1.27394407E+00
  1.05269161E+00
Beta MO coefficients                       R   N=          16
  7.10822935E-03  3.37728778E-02  4.29295408E-01  6.60976628E-01  2.60240153E-01
  8.08474400E-01 -5.56619991E-02 -3.77568928E-02 -2.84737008E-01  1.53208286E-01
 -1.21946892E+00  1.11037855E+00  1.27394248E+00 -1.05269223E+00 -3.11901965E-01
  3.39336062E-01
Alpha Orbital Energies                     R   N=           4
 -3.16963819E-01 -5.39553094E-02  7.04894779E-01  9.33611950E-01
Beta Orbital Energies                      R   N=           4
 -3.16962812E-01 -5.39568063E-02  7.04895632E-01  9.33609286E-01
Total SCF Density                          R   N=          10
  1.84345596E-01  2.83994441E-01  4.38029918E-01  6.10312557E-03  1.91970042E-02
  1.84345077E-01  1.91971047E-02  4.46464062E-02  2.83994304E-01  4.38030737E-01
Spin SCF Density                           R   N=          10
  1.84244542E-01  2.83514310E-01  4.35748704E-01  6.51250043E-08 -9.80007853E-03
 -1.84244019E-01  9.80035773E-03  2.40474998E-07 -2.83514158E-01 -4.35749469E-01
Pure Switching                             I                1
Dipole_Data                                R   N=           3
  0.00000000E+00  0.00000000E+00 -8.47248867E-07
Quadrupole_Data                            R   N=           6
 -2.56609336E+00  0.00000000E+00 -2.56609336E+00  0.00000000E+00  0.00000000E+00
 -2.48876526E+00
Octapole_Data                              R   N=          10
  0.00000000E+00  0.00000000E+00  0.00000000E+00  0.00000000E+00 -2.03363396E-06
  0.00000000E+00 -2.03363396E-06  0.00000000E+00  0.00000000E+00 -8.01916715E-06
Hexadecapole_Data                          R   N=          15
 -2.73612542E+00  0.00000000E+00 -9.12041806E-01  0.00000000E+00 -2.73612542E+00
  0.00000000E+00  0.00000000E+00  0.00000000E+00  0.00000000E+00 -6.65350862E+00
  0.00000000E+00 -6.65350862E+00  0.00000000E+00  0.00000000E+00 -3.70067896E+01
