Jobname.Temp
SP        R                             cc-pVQZ             
Number of atoms                            I                3
Charge                                     I                0
Multiplicity                               I                1
Number of electrons                        I               10
Number of alpha electrons                  I                5
Number of beta electrons                   I                5
Atomic numbers                             I   N=           3
           8           1           1
Current cartesian coordinates              R   N=           9
  1.03842175E-32  2.71229754E-17  2.21475902E-01 -1.43052268E+00  4.39193533E-16
 -8.85903607E-01  1.43052268E+00 -6.56177336E-16 -8.85903607E-01
Nuclear charges                            R   N=           3
  8.00000000E+00  1.00000000E+00  1.00000000E+00
Number of basis functions                  I              115
Number of contracted shells                I               35
Number of primitive shells                 I               55
Highest angular momentum                   I                4
Largest degree of contraction              I                8
Shell types                                I   N=          35
           0           0           0           0           0           1
           1           1           1          -2          -2          -2
          -3          -3          -4           0           0           0
           0           1           1           1          -2          -2
          -3           0           0           0           0           1
           1           1          -2          -2          -3
Number of primitives per shell             I   N=          35
           8           8           1           1           1           3
           1           1           1           1           1           1
           1           1           1           3           1           1
           1           1           1           1           1           1
           1           3           1           1           1           1
           1           1           1           1           1
Shell to atom map                          I   N=          35
           1           1           1           1           1           1
           1           1           1           1           1           1
           1           1           1           2           2           2
           2           2           2           2           2           2
           2           3           3           3           3           3
           3           3           3           3           3
Primitive exponents                        R   N=          55
  6.14200000E+04  9.19900000E+03  2.09100000E+03  5.90900000E+02  1.92300000E+02
  6.93200000E+01  2.69700000E+01  1.11000000E+01  6.14200000E+04  9.19900000E+03
  5.90900000E+02  1.92300000E+02  6.93200000E+01  2.69700000E+01  1.11000000E+01
  4.68200000E+00  1.42800000E+00  5.54700000E-01  2.06700000E-01  6.34200000E+01
  1.46600000E+01  4.45900000E+00  1.53100000E+00  5.30200000E-01  1.75000000E-01
  3.77500000E+00  1.30000000E+00  4.44000000E-01  2.66600000E+00  8.59000000E-01
  1.84600000E+00  8.26400000E+01  1.24100000E+01  2.82400000E+00  7.97700000E-01
  2.58100000E-01  8.98900000E-02  2.29200000E+00  8.38000000E-01  2.92000000E-01
  2.06200000E+00  6.62000000E-01  1.39700000E+00  8.26400000E+01  1.24100000E+01
  2.82400000E+00  7.97700000E-01  2.58100000E-01  8.98900000E-02  2.29200000E+00
  8.38000000E-01  2.92000000E-01  2.06200000E+00  6.62000000E-01  1.39700000E+00
Contraction coefficients                   R   N=          55
  1.55513906E-04  1.18440926E-03  6.24876819E-03  2.55912773E-02  8.77566873E-02
  2.30729100E-01  4.42804310E-01  3.33680461E-01  2.66555235E-06 -7.86556431E-06
 -4.74599411E-04 -2.15914110E-03 -2.37542227E-02 -1.01921545E-01 -4.53228586E-01
 -4.84793008E-01  1.00000000E+00  1.00000000E+00  1.00000000E+00  3.13275025E-02
  2.16654248E-01  8.35242842E-01  1.00000000E+00  1.00000000E+00  1.00000000E+00
  1.00000000E+00  1.00000000E+00  1.00000000E+00  1.00000000E+00  1.00000000E+00
  1.00000000E+00  2.29507578E-02  1.75540118E-01  8.64703551E-01  1.00000000E+00
  1.00000000E+00  1.00000000E+00  1.00000000E+00  1.00000000E+00  1.00000000E+00
  1.00000000E+00  1.00000000E+00  1.00000000E+00  2.29507578E-02  1.75540118E-01
  8.64703551E-01  1.00000000E+00  1.00000000E+00  1.00000000E+00  1.00000000E+00
  1.00000000E+00  1.00000000E+00  1.00000000E+00  1.00000000E+00  1.00000000E+00
Coordinates of each shell                  R   N=         105
  1.03842175E-32  2.71229754E-17  2.21475902E-01  1.03842175E-32  2.71229754E-17
  2.21475902E-01  1.03842175E-32  2.71229754E-17  2.21475902E-01  1.03842175E-32
  2.71229754E-17  2.21475902E-01  1.03842175E-32  2.71229754E-17  2.21475902E-01
  1.03842175E-32  2.71229754E-17  2.21475902E-01  1.03842175E-32  2.71229754E-17
  2.21475902E-01  1.03842175E-32  2.71229754E-17  2.21475902E-01  1.03842175E-32
  2.71229754E-17  2.21475902E-01  1.03842175E-32  2.71229754E-17  2.21475902E-01
  1.03842175E-32  2.71229754E-17  2.21475902E-01  1.03842175E-32  2.71229754E-17
  2.21475902E-01  1.03842175E-32  2.71229754E-17  2.21475902E-01  1.03842175E-32
  2.71229754E-17  2.21475902E-01  1.03842175E-32  2.71229754E-17  2.21475902E-01
 -1.43052268E+00  4.39193533E-16 -8.85903607E-01 -1.43052268E+00  4.39193533E-16
 -8.85903607E-01 -1.43052268E+00  4.39193533E-16 -8.85903607E-01 -1.43052268E+00
  4.39193533E-16 -8.85903607E-01 -1.43052268E+00  4.39193533E-16 -8.85903607E-01
 -1.43052268E+00  4.39193533E-16 -8.85903607E-01 -1.43052268E+00  4.39193533E-16
 -8.85903607E-01 -1.43052268E+00  4.39193533E-16 -8.85903607E-01 -1.43052268E+00
  4.39193533E-16 -8.85903607E-01 -1.43052268E+00  4.39193533E-16 -8.85903607E-01
  1.43052268E+00 -6.56177336E-16 -8.85903607E-01  1.43052268E+00 -6.56177336E-16
 -8.85903607E-01  1.43052268E+00 -6.56177336E-16 -8.85903607E-01  1.43052268E+00
 -6.56177336E-16 -8.85903607E-01  1.43052268E+00 -6.56177336E-16 -8.85903607E-01
  1.43052268E+00 -6.56177336E-16 -8.85903607E-01  1.43052268E+00 -6.56177336E-16
 -8.85903607E-01  1.43052268E+00 -6.56177336E-16 -8.85903607E-01  1.43052268E+00
 -6.56177336E-16 -8.85903607E-01  1.43052268E+00 -6.56177336E-16 -8.85903607E-01
Overlap Matrix                             R   N=        6670
  1.00000000E+00 -8.37622615E-01  1.00000000E+00  3.38518906E-01 -6.40310154E-01
  1.00000000E+00  1.79447310E-01 -3.77069215E-01  8.50646782E-01  1.00000000E+00
  8.83146827E-02 -1.94909691E-01  5.41925282E-01  8.38831376E-01  1.00000000E+00
 -1.28170929E-48  7.53963854E-49  1.08571422E-49  0.00000000E+00  2.31074911E-49
  1.00000000E+00  2.71179141E-33  5.83284037E-33 -2.19312406E-33 -1.17332592E-33
  5.79366822E-34  4.81903050E-81  1.00000000E+00 -2.67422592E-17  7.66954490E-18
 -1.97539054E-17 -5.92192871E-17  4.68675600E-18 -4.34059679E-65 -9.77415504E-50
  1.00000000E+00  4.73374435E-49 -2.11037957E-48  3.38340023E-48 -2.81313471E-48
  1.76428127E-48  6.52075582E-01  7.75067086E-81  0.00000000E+00  1.00000000E+00
  2.37057694E-33 -2.05812124E-33  7.61874001E-33  0.00000000E+00  0.00000000E+00
  7.75067086E-81  6.52075582E-01  0.00000000E+00  0.00000000E+00  1.00000000E+00
  6.71863348E-18 -2.85061899E-17  6.86235094E-17 -5.70571505E-17  0.00000000E+00
  0.00000000E+00  0.00000000E+00  6.52075582E-01  0.00000000E+00  0.00000000E+00
  1.00000000E+00 -9.48325418E-50  2.58841786E-50 -1.66961339E-48  0.00000000E+00
 -1.69725797E-48  2.67244679E-01  2.26587126E-81 -7.40075422E-65  7.14567562E-01
  0.00000000E+00  0.00000000E+00  1.00000000E+00  7.30410676E-35  1.01498686E-33
 -3.75963512E-33  0.00000000E+00  0.00000000E+00  2.26587126E-81  2.67244679E-01
  4.59573291E-50  0.00000000E+00  7.14567562E-01  0.00000000E+00  0.00000000E+00
  1.00000000E+00 -5.42224734E-18  5.45807783E-18  0.00000000E+00  0.00000000E+00
  0.00000000E+00 -7.40075422E-65  4.59573291E-50  2.67244679E-01  0.00000000E+00
  0.00000000E+00  7.14567562E-01  0.00000000E+00  0.00000000E+00  1.00000000E+00
 -3.22976081E-50  7.46953523E-51 -5.63961051E-49 -9.03504551E-49 -1.13900428E-48
  7.97679543E-02  2.38796418E-82  1.07544346E-66  2.86842812E-01  0.00000000E+00
  0.00000000E+00  6.93651684E-01  4.12548395E-81  3.71590560E-65  1.00000000E+00
 -1.05792556E-34  1.43637478E-34  0.00000000E+00 -2.03451138E-33 -2.56480963E-33
  2.38796418E-82  7.97679543E-02  1.43345588E-50  0.00000000E+00  2.86842812E-01
  0.00000000E+00  4.12548395E-81  6.93651684E-01  8.36747554E-50  0.00000000E+00
  1.00000000E+00 -2.53409137E-18  2.73837095E-18 -1.14384890E-17 -1.83252494E-17
 -2.31017514E-17  1.07544346E-66  1.43345588E-50  7.97679543E-02  0.00000000E+00
  0.00000000E+00  2.86842812E-01  3.71590560E-65  8.36747554E-50  6.93651684E-01
  2.65875897E-65  0.00000000E+00  1.00000000E+00  0.00000000E+00  0.00000000E+00
  0.00000000E+00  0.00000000E+00  0.00000000E+00  2.15298414E-48 -5.75573059E-33
  1.52274939E-17  0.00000000E+00  5.40393819E-33  0.00000000E+00  0.00000000E+00
  2.42089428E-33 -4.36109543E-17  0.00000000E+00  0.00000000E+00  0.00000000E+00
  1.00000000E+00  0.00000000E+00 -2.75642382E-64  0.00000000E+00  0.00000000E+00
  0.00000000E+00  1.31873966E-17  0.00000000E+00 -3.72907793E-48  0.00000000E+00
  0.00000000E+00  0.00000000E+00 -3.77681943E-17  0.00000000E+00  0.00000000E+00
  0.00000000E+00  0.00000000E+00  0.00000000E+00  0.00000000E+00  1.00000000E+00
  3.49911256E-49 -1.09596587E-48  0.00000000E+00  0.00000000E+00  0.00000000E+00
  0.00000000E+00  1.31873966E-17  9.96921782E-33  0.00000000E+00  0.00000000E+00
 -9.35989551E-33  0.00000000E+00 -3.77681943E-17 -4.19311189E-33  0.00000000E+00
  0.00000000E+00  0.00000000E+00  0.00000000E+00  0.00000000E+00  1.00000000E+00
  1.67519533E-18  3.83116603E-18 -5.71649549E-18  1.32001895E-17 -1.55203078E-17
 -3.72907793E-48 -9.96921782E-33  2.67737716E-34  0.00000000E+00  9.35989551E-33
  0.00000000E+00  0.00000000E+00  4.19311189E-33 -5.01331597E-34  0.00000000E+00
  0.00000000E+00  0.00000000E+00 -4.95805605E-18  0.00000000E+00  0.00000000E+00
  1.00000000E+00  0.00000000E+00 -3.06024519E-80  5.36866410E-80  0.00000000E+00
  0.00000000E+00  9.96921782E-33 -3.72907793E-48  0.00000000E+00 -9.35989551E-33
  0.00000000E+00  0.00000000E+00 -4.19311189E-33  0.00000000E+00  0.00000000E+00
  0.00000000E+00  0.00000000E+00  0.00000000E+00  0.00000000E+00  0.00000000E+00
  0.00000000E+00  0.00000000E+00  1.00000000E+00  0.00000000E+00  0.00000000E+00
  0.00000000E+00  0.00000000E+00  0.00000000E+00 -8.64029098E-50 -1.97693371E-33
  3.90227045E-17  0.00000000E+00 -4.02323135E-33  0.00000000E+00  0.00000000E+00
  0.00000000E+00  0.00000000E+00  0.00000000E+00  0.00000000E+00  0.00000000E+00
  6.21705002E-01  2.76758329E-64  6.23204354E-49  1.35768989E-17 -3.07263469E-80
  1.00000000E+00  2.38568803E-65 -5.46057437E-66  0.00000000E+00  1.73069244E-64
  0.00000000E+00  3.37946534E-17  0.00000000E+00  1.49654230E-49  0.00000000E+00
  0.00000000E+00  0.00000000E+00  0.00000000E+00  0.00000000E+00  0.00000000E+00
  0.00000000E+00  0.00000000E+00  0.00000000E+00  2.76758329E-64  6.21705002E-01
  2.66097970E-80  4.79359487E-64  1.07942160E-48  0.00000000E+00  1.00000000E+00
  5.37209798E-50 -1.73816321E-49  0.00000000E+00  0.00000000E+00  0.00000000E+00
  0.00000000E+00  3.37946534E-17  3.42414962E-33  0.00000000E+00  0.00000000E+00
  6.96844112E-33  0.00000000E+00  0.00000000E+00  0.00000000E+00  0.00000000E+00
  0.00000000E+00  0.00000000E+00  6.23204354E-49  2.66097970E-80  6.21705002E-01
 -1.07942160E-48  4.79359487E-64  2.56775405E-49  0.00000000E+00  1.00000000E+00
 -9.44297403E-19 -6.22781972E-18 -9.66428874E-18 -4.96176395E-17 -1.73165754E-17
  1.49654230E-49 -3.42414962E-33  1.39891295E-33  0.00000000E+00 -6.96844112E-33
  0.00000000E+00  0.00000000E+00  0.00000000E+00  0.00000000E+00  0.00000000E+00
  0.00000000E+00  0.00000000E+00 -1.35768989E-17  4.79359487E-64 -1.07942160E-48
  6.21705002E-01 -6.73646144E-98  1.73531962E-17  0.00000000E+00 -4.44748048E-49
  1.00000000E+00 -8.60387532E-82  4.15997363E-81  0.00000000E+00  0.00000000E+00
  0.00000000E+00  3.42414962E-33  1.49654230E-49  0.00000000E+00  6.96844112E-33
  0.00000000E+00  0.00000000E+00  0.00000000E+00  0.00000000E+00  0.00000000E+00
  0.00000000E+00  0.00000000E+00  0.00000000E+00 -3.07263469E-80  1.07942160E-48
  4.79359487E-64 -6.73646144E-98  6.21705002E-01  0.00000000E+00  4.44748048E-49
  0.00000000E+00  0.00000000E+00  1.00000000E+00  0.00000000E+00  0.00000000E+00
  0.00000000E+00  0.00000000E+00  0.00000000E+00 -2.03979149E-49  3.40745205E-35
 -6.28895047E-19  0.00000000E+00  0.00000000E+00  0.00000000E+00  0.00000000E+00
  0.00000000E+00  0.00000000E+00 -8.10524567E-49 -3.65027814E-33  0.00000000E+00
  1.81090854E-01  3.35086042E-65  1.50909338E-49  2.00673924E-18 -1.48808096E-80
  6.17324292E-01  0.00000000E+00  0.00000000E+00 -1.44087908E-17  0.00000000E+00
  1.00000000E+00  9.87204571E-67 -1.01635046E-67  5.29289769E-65  6.68339547E-65
  0.00000000E+00 -5.44639087E-19 -6.77163095E-98  3.53302250E-49  0.00000000E+00
  0.00000000E+00  0.00000000E+00  0.00000000E+00  0.00000000E+00  0.00000000E+00
  0.00000000E+00  0.00000000E+00  1.40386973E-48  3.35086042E-65  1.81090854E-01
  1.28871591E-80  5.80386050E-65  2.61382640E-49  0.00000000E+00  6.17324292E-01
  0.00000000E+00  0.00000000E+00  0.00000000E+00  0.00000000E+00  1.00000000E+00
  4.98521860E-53 -3.10713991E-50  1.19185460E-49  1.50496687E-49  0.00000000E+00
 -6.77163095E-98 -5.44639087E-19 -5.90188008E-35  0.00000000E+00  0.00000000E+00
  0.00000000E+00  0.00000000E+00  0.00000000E+00  0.00000000E+00  0.00000000E+00
  0.00000000E+00  6.32246720E-33  1.50909338E-49  1.28871591E-80  1.81090854E-01
 -2.61382640E-49  5.80386050E-65  0.00000000E+00  0.00000000E+00  6.17324292E-01
  0.00000000E+00  0.00000000E+00  0.00000000E+00  7.48917742E-81  1.00000000E+00
 -3.08716052E-19 -1.56137094E-18  1.06573116E-17 -2.67103583E-17 -4.22823654E-17
  3.53302250E-49  5.90188008E-35  4.59289625E-36  0.00000000E+00  0.00000000E+00
  0.00000000E+00  0.00000000E+00  0.00000000E+00  0.00000000E+00  1.40386973E-48
 -6.32246720E-33  0.00000000E+00  7.15422458E-19  5.80386050E-65 -2.61382640E-49
  1.81090854E-01 -3.33232829E-98  1.52738331E-18  0.00000000E+00  0.00000000E+00
  6.17324292E-01  0.00000000E+00 -4.95805605E-18  0.00000000E+00  0.00000000E+00
  1.00000000E+00  4.59249298E-88  7.87166292E-90  5.87629688E-81  7.42005953E-81
  0.00000000E+00 -5.90188008E-35  3.53302250E-49 -6.77163095E-98  0.00000000E+00
  0.00000000E+00  0.00000000E+00  0.00000000E+00  0.00000000E+00  0.00000000E+00
  6.32246720E-33  1.40386973E-48  0.00000000E+00 -1.48808096E-80  2.61382640E-49
  5.80386050E-65 -3.33232829E-98  1.81090854E-01  0.00000000E+00  0.00000000E+00
  0.00000000E+00  0.00000000E+00  6.17324292E-01 -8.64775720E-81  0.00000000E+00
  0.00000000E+00 -5.49155484E-97  1.00000000E+00 -2.31111593E-33 -6.16297582E-33
  0.00000000E+00  2.46519033E-32  1.23259516E-32 -2.41476177E-64 -6.11472671E-49
  5.55111512E-17 -5.70661299E-64 -2.57003002E-48  0.00000000E+00  0.00000000E+00
 -3.37265117E-49  0.00000000E+00  0.00000000E+00  0.00000000E+00 -5.55111512E-17
 -1.15365227E-16  0.00000000E+00  0.00000000E+00 -5.57932151E-34  0.00000000E+00
 -9.74929429E-17  2.77519180E-48  6.24917638E-33 -6.67619001E-34  3.76544589E-96
 -3.48389963E-17  0.00000000E+00  0.00000000E+00  3.72816419E-34  0.00000000E+00
  1.00000000E+00 -8.83058609E-65  1.29305362E-64  6.76352966E-65  0.00000000E+00
  0.00000000E+00 -1.05487817E-17 -1.09448269E-80  3.94328946E-64  1.00459844E-16
 -2.58650323E-80  9.31886000E-64  6.83838237E-18  0.00000000E+00  0.00000000E+00
  4.82957650E-17  0.00000000E+00  0.00000000E+00  0.00000000E+00 -1.08767379E-16
  0.00000000E+00  0.00000000E+00  0.00000000E+00 -3.92471388E-48 -9.19172280E-17
 -2.30585527E-96  1.13296731E-48  2.55121557E-33  0.00000000E+00 -3.28465207E-17
  0.00000000E+00  0.00000000E+00  0.00000000E+00  0.00000000E+00  1.00000000E+00
 -9.02716858E-50  3.76180664E-49  0.00000000E+00 -1.13733379E-48  0.00000000E+00
 -1.09448269E-80 -1.05487817E-17  9.98530691E-49 -2.58650323E-80 -1.05624588E-17
  4.19684144E-48  0.00000000E+00  6.83838237E-18  5.50751630E-49  0.00000000E+00
  2.05401894E-17  0.00000000E+00  0.00000000E+00  0.00000000E+00 -1.08767379E-16
  0.00000000E+00  0.00000000E+00 -8.83766999E-33 -2.30585527E-96 -9.19172280E-17
 -2.55121557E-33  1.13296731E-48  0.00000000E+00  0.00000000E+00 -3.28465207E-17
  0.00000000E+00  0.00000000E+00  0.00000000E+00  0.00000000E+00  1.00000000E+00
  8.79374136E-35 -5.09652378E-34  0.00000000E+00  1.74939778E-33 -8.37939389E-34
  3.11744404E-64 -7.89407824E-49  1.67630911E-17  7.36720570E-64 -3.31789448E-48
  2.05204722E-17  0.00000000E+00 -4.35407394E-49  6.92908985E-18  0.00000000E+00
  0.00000000E+00 -5.30378436E-18 -1.14459771E-33  0.00000000E+00  0.00000000E+00
 -8.59881630E-17  0.00000000E+00  4.67409128E-34 -3.58275721E-48  8.06765201E-33
 -7.26669492E-17  0.00000000E+00  5.20709508E-34  0.00000000E+00  0.00000000E+00
 -2.59674546E-17  0.00000000E+00 -1.87477717E-17  0.00000000E+00  0.00000000E+00
  1.00000000E+00  0.00000000E+00  0.00000000E+00  0.00000000E+00  0.00000000E+00
  0.00000000E+00  7.89407824E-49  3.11744404E-64  3.46105815E-80  3.31789448E-48
  7.36720570E-64  8.17924139E-80  4.35407394E-49  0.00000000E+00  0.00000000E+00
  0.00000000E+00  0.00000000E+00  0.00000000E+00  0.00000000E+00  0.00000000E+00
  0.00000000E+00  0.00000000E+00 -8.59881630E-17  0.00000000E+00 -8.06765201E-33
 -3.58275721E-48  0.00000000E+00 -7.26669492E-17  0.00000000E+00  0.00000000E+00
  0.00000000E+00  0.00000000E+00 -2.59674546E-17  0.00000000E+00  0.00000000E+00
  0.00000000E+00  0.00000000E+00  1.00000000E+00  1.84366683E-64 -2.53542642E-64
  4.33029793E-64  0.00000000E+00  0.00000000E+00  8.16901322E-17 -4.23891322E-80
  9.27294249E-80  1.15775713E-16 -1.00174839E-79  3.11074805E-80  7.96869311E-17
  0.00000000E+00  0.00000000E+00 -1.51342654E-17  0.00000000E+00  0.00000000E+00
  0.00000000E+00  9.60745518E-33  0.00000000E+00  0.00000000E+00  0.00000000E+00
  1.94909165E-64 -2.43234899E-32  2.97684636E-96 -4.38796352E-48  9.88081543E-33
  0.00000000E+00  2.75584693E-34  0.00000000E+00  0.00000000E+00  0.00000000E+00
  0.00000000E+00 -3.60954511E-17  0.00000000E+00  0.00000000E+00  0.00000000E+00
  1.00000000E+00 -1.35416667E-49  2.39549152E-49  0.00000000E+00 -2.96861415E-49
  0.00000000E+00  4.23891322E-80 -5.99988909E-17 -3.02623787E-64  1.00174839E-79
 -6.86727933E-17  4.33658557E-65  0.00000000E+00 -3.59056924E-17  8.75856933E-66
  0.00000000E+00  2.51221220E-17  0.00000000E+00  0.00000000E+00  0.00000000E+00
 -1.28937034E-32  0.00000000E+00  0.00000000E+00  6.40484635E-49 -2.97684636E-96
  2.19305672E-32 -9.88081543E-33 -4.38796352E-48  0.00000000E+00  0.00000000E+00
  6.81879256E-34  0.00000000E+00  0.00000000E+00  0.00000000E+00  0.00000000E+00
  4.03909093E-17  0.00000000E+00  0.00000000E+00  0.00000000E+00  1.00000000E+00
 -6.74075481E-34  5.77778983E-34  0.00000000E+00  0.00000000E+00  0.00000000E+00
  0.00000000E+00 -8.83679340E-50 -1.38777878E-17  0.00000000E+00  0.00000000E+00
 -1.11022302E-16  0.00000000E+00  0.00000000E+00  0.00000000E+00 -9.84696426E-65
  0.00000000E+00 -1.11022302E-16 -5.71340033E-17  8.13175871E-49  1.83110927E-33
 -2.01634258E-33  2.57834606E-96  6.40652770E-17 -1.82365437E-48 -8.21300915E-33
 -1.09132513E-33 -2.69398931E-96  0.00000000E+00  0.00000000E+00 -3.66919198E-33
  0.00000000E+00  0.00000000E+00  5.03603662E-01  0.00000000E+00  0.00000000E+00
  2.16790231E-17  0.00000000E+00  0.00000000E+00  0.00000000E+00  1.00000000E+00
  2.28010787E-65 -4.93845719E-66  0.00000000E+00 -2.63248060E-64  0.00000000E+00
  7.00256249E-18  0.00000000E+00  0.00000000E+00  5.44306192E-17  0.00000000E+00
  0.00000000E+00 -2.74128131E-17  0.00000000E+00  0.00000000E+00  1.52651318E-16
  0.00000000E+00  1.60800253E-64 -1.15000435E-48 -5.38664549E-17 -1.57890806E-96
  3.31977659E-49  7.47547231E-34  2.57903675E-48  6.04013224E-17  1.64972480E-96
 -7.44503780E-49 -3.35294694E-33  0.00000000E+00  0.00000000E+00  0.00000000E+00
  0.00000000E+00 -1.49794135E-33  0.00000000E+00  5.03603662E-01  0.00000000E+00
  0.00000000E+00  0.00000000E+00  2.27318056E-16  0.00000000E+00  0.00000000E+00
  1.00000000E+00  2.36929654E-50  3.15466031E-50  2.62571046E-49  0.00000000E+00
  0.00000000E+00  0.00000000E+00  7.00256249E-18  1.44304232E-49  0.00000000E+00
  5.44306192E-17  0.00000000E+00  0.00000000E+00 -2.74128131E-17  0.00000000E+00
  0.00000000E+00  1.52651318E-16  0.00000000E+00 -2.58957957E-33 -1.57890806E-96
 -5.38664549E-17 -7.47547231E-34  3.31977659E-49  1.16149489E-32  1.64972480E-96
  6.04013224E-17  3.35294694E-33 -7.44503780E-49  5.18902106E-33  0.00000000E+00
  0.00000000E+00  1.49794135E-33  0.00000000E+00  0.00000000E+00  0.00000000E+00
  5.03603662E-01  0.00000000E+00  0.00000000E+00  0.00000000E+00 -2.29925895E-16
  1.43969164E-49  0.00000000E+00  1.00000000E+00 -2.62367804E-35 -4.31746072E-35
  0.00000000E+00  0.00000000E+00  0.00000000E+00  0.00000000E+00 -1.14082512E-49
  6.36650024E-18  0.00000000E+00  0.00000000E+00  9.38766056E-18  0.00000000E+00
  0.00000000E+00  3.27997594E-17  1.27123762E-64  0.00000000E+00 -1.87805655E-17
  1.92302188E-34 -1.04980554E-48  2.36395191E-33 -4.25851717E-17  0.00000000E+00
  2.52607366E-34  2.35432767E-48 -1.06029492E-32  4.77514382E-17  0.00000000E+00
  0.00000000E+00  0.00000000E+00 -4.73690647E-33  0.00000000E+00  0.00000000E+00
 -2.13248132E-18  0.00000000E+00  0.00000000E+00  5.03603662E-01  0.00000000E+00
  0.00000000E+00  0.00000000E+00  2.18892113E-17  0.00000000E+00 -2.78795087E-49
  1.00000000E+00  0.00000000E+00  0.00000000E+00  0.00000000E+00  0.00000000E+00
  0.00000000E+00  1.14082512E-49  0.00000000E+00  0.00000000E+00  0.00000000E+00
  0.00000000E+00  0.00000000E+00  0.00000000E+00  0.00000000E+00  0.00000000E+00
  0.00000000E+00  1.27123762E-64  0.00000000E+00  0.00000000E+00 -2.36395191E-33
 -1.04980554E-48  0.00000000E+00 -4.25851717E-17  0.00000000E+00  1.06029492E-32
  2.35432767E-48  0.00000000E+00  4.77514382E-17  0.00000000E+00  4.73690647E-33
  0.00000000E+00  0.00000000E+00  0.00000000E+00  0.00000000E+00  0.00000000E+00
  0.00000000E+00  0.00000000E+00  5.03603662E-01  0.00000000E+00  0.00000000E+00
  0.00000000E+00  2.78795087E-49  0.00000000E+00  0.00000000E+00  1.00000000E+00
 -3.06647041E-65  6.62550963E-66  0.00000000E+00 -1.98546242E-66  0.00000000E+00
  1.24084101E-18  0.00000000E+00  0.00000000E+00  6.27573243E-18  0.00000000E+00
  0.00000000E+00  1.00170241E-16  0.00000000E+00  0.00000000E+00 -6.99335550E-17
  0.00000000E+00 -4.72579734E-81 -1.42544769E-64  5.66140792E-33  2.03836154E-96
 -1.28574395E-48  2.89523798E-33 -4.64622247E-64  5.06614129E-33 -2.12978555E-96
  2.88345074E-48 -1.29859077E-32  0.00000000E+00  0.00000000E+00  0.00000000E+00
  0.00000000E+00 -5.80150191E-33  0.00000000E+00  2.35902988E-16  0.00000000E+00
  0.00000000E+00  0.00000000E+00  5.03603662E-01  0.00000000E+00  0.00000000E+00
  2.17072045E-16  0.00000000E+00  0.00000000E+00 -3.59922910E-49  1.00000000E+00
  2.55914336E-50  5.86976664E-50 -2.80188666E-49  0.00000000E+00  0.00000000E+00
  0.00000000E+00 -1.16915156E-18 -8.79631469E-66  0.00000000E+00  8.31429025E-18
  0.00000000E+00  0.00000000E+00 -9.28671495E-17  0.00000000E+00  0.00000000E+00
  3.48414626E-17  0.00000000E+00 -9.33474981E-49 -2.03836154E-96 -5.04851623E-33
 -2.89523798E-33 -1.28574395E-48  2.79842669E-48  2.12978555E-96 -5.64383259E-33
  1.29859077E-32  2.88345074E-48  2.83372903E-50  0.00000000E+00  0.00000000E+00
  5.80150191E-33  0.00000000E+00  0.00000000E+00  0.00000000E+00 -1.85730182E-16
  0.00000000E+00  0.00000000E+00  0.00000000E+00  5.03603662E-01  7.81173620E-65
  0.00000000E+00 -1.01582322E-16  3.59922910E-49  0.00000000E+00  0.00000000E+00
  1.00000000E+00  1.73472348E-17 -7.63278329E-17  0.00000000E+00 -2.22044605E-16
 -1.66533454E-16 -4.98517307E-65 -5.13170824E-49  0.00000000E+00  0.00000000E+00
  0.00000000E+00  0.00000000E+00 -4.55787252E-64  0.00000000E+00 -2.46519033E-32
  0.00000000E+00 -6.84227766E-49 -3.69778549E-32  0.00000000E+00 -5.27541690E-64
 -5.93959140E-49  7.68558483E-18  1.46422233E-80 -4.44089210E-16 -3.11325733E-64
 -1.40208645E-48 -8.23173008E-17  1.72820498E-80 -2.22044605E-16  0.00000000E+00
  0.00000000E+00  2.66758015E-17  0.00000000E+00 -1.05727453E-16  3.19215414E-48
  7.18809209E-33  6.52433224E-33  5.45370556E-96 -5.79662280E-63  1.37492017E-47
  8.26790081E-17  0.00000000E+00 -5.62109754E-33  6.86049421E-33  0.00000000E+00
  0.00000000E+00  2.65279580E-48  1.00000000E+00 -3.55316589E-82  3.20069957E-83
  0.00000000E+00  0.00000000E+00  0.00000000E+00  0.00000000E+00  0.00000000E+00
 -6.03774476E-65  0.00000000E+00  0.00000000E+00  0.00000000E+00  3.36094836E-33
  0.00000000E+00 -1.16836874E-63 -1.69411162E-33  0.00000000E+00  0.00000000E+00
  7.22366210E-64 -1.36913242E-17 -2.31513878E-80 -2.08529163E-64 -2.34782965E-49
  4.26300316E-64 -1.30286789E-16 -2.73253201E-80 -1.23062301E-64 -5.54223334E-49
  0.00000000E+00 -7.54751983E-18  0.00000000E+00  0.00000000E+00  0.00000000E+00
 -4.12105327E-48 -1.02370166E-16 -3.11640318E-96  1.59607707E-48  3.59404605E-33
 -1.15955613E-32  3.01744440E-96  0.00000000E+00  8.00536054E-17  0.00000000E+00
  0.00000000E+00 -2.81054877E-33  6.72984892E-33  0.00000000E+00  0.00000000E+00
  1.00000000E+00 -7.76974023E-67  7.96429623E-68  0.00000000E+00  0.00000000E+00
  0.00000000E+00  0.00000000E+00  0.00000000E+00 -4.82359657E-49  0.00000000E+00
  0.00000000E+00  0.00000000E+00  0.00000000E+00  3.36094836E-33  0.00000000E+00
  0.00000000E+00 -1.69411162E-33 -9.40420865E-50  8.13312048E-49 -2.31513878E-80
 -1.36913242E-17  2.34782965E-49 -2.08529163E-64  1.91988595E-48 -2.73253201E-80
 -1.30286789E-16  5.54223334E-49 -1.23062301E-64  0.00000000E+00  0.00000000E+00
 -7.54751983E-18  0.00000000E+00  0.00000000E+00 -9.27978699E-33 -3.11640318E-96
 -1.02370166E-16 -3.59404605E-33  1.59607707E-48 -3.01744440E-96  8.42705125E-33
  7.25680572E-33  0.00000000E+00  8.00536054E-17  2.81054877E-33  0.00000000E+00
  0.00000000E+00 -4.96646006E-33  2.85301697E-49  0.00000000E+00  1.00000000E+00
 -4.22958488E-20  1.27622377E-18  1.37692846E-17  9.41113125E-18 -3.28759981E-17
  6.90116199E-65  1.05454665E-48  0.00000000E+00  0.00000000E+00  0.00000000E+00
  0.00000000E+00 -6.45124515E-64  0.00000000E+00 -5.80188677E-33  0.00000000E+00
 -7.22120972E-49 -6.82623324E-34 -3.49837920E-18  5.89809540E-64 -6.64066506E-49
 -2.84372376E-17  2.89553929E-96 -1.18089949E-17  3.48072751E-64 -1.56758031E-48
 -1.48415390E-16  1.17234257E-96 -1.73389722E-17  0.00000000E+00  0.00000000E+00
  1.67460580E-16  0.00000000E+00  6.86802485E-34 -3.56893682E-48  8.03653127E-33
 -9.15626599E-17  0.00000000E+00  9.21495525E-49  2.07502345E-33  9.61622604E-35
  0.00000000E+00 -6.28457811E-33  7.16021214E-17  0.00000000E+00  0.00000000E+00
 -1.62267109E-33 -2.70406822E-17  0.00000000E+00 -5.74158590E-49  1.00000000E+00
  1.04994256E-97 -1.03689263E-98  0.00000000E+00  0.00000000E+00  0.00000000E+00
  9.21359419E-49  3.15043310E-65  0.00000000E+00  0.00000000E+00  0.00000000E+00
  0.00000000E+00  0.00000000E+00  6.53835198E-64  0.00000000E+00  8.76759294E-50
  0.00000000E+00  0.00000000E+00  5.67090869E-80  6.64066506E-49  5.89809540E-64
 -3.15418721E-96  1.63239220E-17  6.69330912E-80  1.56758031E-48  3.48072751E-64
  8.12821146E-98  2.66403987E-16  0.00000000E+00  0.00000000E+00  0.00000000E+00
  0.00000000E+00  8.83400049E-17  1.34944216E-96 -8.03653127E-33 -3.56893682E-48
  0.00000000E+00 -9.15626599E-17 -2.07502345E-33  9.21495525E-49  0.00000000E+00
  6.28457811E-33  0.00000000E+00  0.00000000E+00  7.16021214E-17  1.62267109E-33
  0.00000000E+00  0.00000000E+00  5.74158590E-49  0.00000000E+00  0.00000000E+00
  1.00000000E+00 -8.70895020E-82  8.56161575E-83  0.00000000E+00  0.00000000E+00
  0.00000000E+00  0.00000000E+00  0.00000000E+00 -9.71421646E-66  0.00000000E+00
  0.00000000E+00  0.00000000E+00 -2.15667329E-32  0.00000000E+00 -4.55605691E-64
 -3.59101939E-33  0.00000000E+00  0.00000000E+00 -5.33397713E-80 -7.46340002E-17
 -6.12528146E-80  5.51716306E-64 -6.21177337E-49  1.75583649E-80 -2.50726382E-16
 -7.22960014E-80  3.25592245E-64 -1.46633711E-48  0.00000000E+00 -6.42763994E-17
  0.00000000E+00  0.00000000E+00  0.00000000E+00  3.13124109E-64 -2.09493906E-32
  2.06130695E-96 -4.22282300E-48  9.50895204E-33 -6.99321367E-17  0.00000000E+00
  0.00000000E+00  3.64075819E-33  0.00000000E+00  0.00000000E+00 -7.43601310E-33
  5.46870235E-17  0.00000000E+00  0.00000000E+00  3.39011896E-16  0.00000000E+00
  0.00000000E+00 -8.43933801E-49  1.00000000E+00  2.23035655E-66 -2.02728894E-67
  0.00000000E+00  0.00000000E+00  0.00000000E+00  0.00000000E+00  0.00000000E+00
  9.62195836E-49  0.00000000E+00  0.00000000E+00  0.00000000E+00  0.00000000E+00
  1.56291372E-32  0.00000000E+00  0.00000000E+00  5.58249643E-33  3.09890803E-49
  6.00552435E-65  6.12528146E-80  2.86945741E-17  6.21177337E-49  5.51716306E-64
 -2.40220974E-64  7.22960014E-80  2.49448211E-16  1.46633711E-48  3.25592245E-64
  0.00000000E+00  0.00000000E+00  7.99506648E-17  0.00000000E+00  0.00000000E+00
 -1.87990240E-48 -2.06130695E-96  2.22521000E-32 -9.50895204E-33 -4.22282300E-48
  0.00000000E+00 -6.99321367E-17  2.43974065E-48  0.00000000E+00 -1.00917237E-32
  7.43601310E-33  0.00000000E+00  0.00000000E+00  5.46870235E-17 -4.30656749E-64
  0.00000000E+00 -2.04587185E-16  8.43933801E-49  0.00000000E+00  0.00000000E+00
  1.00000000E+00  1.63177115E-17 -7.26620609E-17  1.36723188E-17 -1.14687508E-16
 -1.05214857E-16 -9.21964403E-65 -2.47489369E-48  0.00000000E+00  0.00000000E+00
  0.00000000E+00  0.00000000E+00  2.89392146E-64  0.00000000E+00 -6.45638160E-33
  0.00000000E+00 -5.72171772E-49  2.33557665E-33  1.27823703E-17  2.96282129E-79
  1.18150391E-64  2.60020331E-17 -8.66245611E-80 -9.92322274E-17 -5.51706671E-80