Jobname.Temp
SP        R                             LANL2DZ             
Number of atoms                            I                2
Charge                                     I                0
Multiplicity                               I                1
Number of electrons                        I               14
Number of alpha electrons                  I                7
Number of beta electrons                   I                7
Atomic numbers                             I   N=           2
          53          53
Current cartesian coordinates              R   N=           6
  0.00000000E+00  0.00000000E+00 -2.51333575E+00  0.00000000E+00  0.00000000E+00
  2.51333575E+00
Nuclear charges                            R   N=           2
  5.30000000E+01  5.30000000E+01
Number of basis functions                  I               16
Number of contracted shells                I                8
Number of primitive shells                 I               12
Highest angular momentum                   I                1
Largest degree of contraction              I                2
Shell types                                I   N=           8
           0           0           1           1           0           0
           1           1
Number of primitives per shell             I   N=           8
           2           1           2           1           2           1
           2           1
Shell to atom map                          I   N=           8
           1           1           1           1           2           2
           2           2
Primitive exponents                        R   N=          12
  7.24200000E-01  4.65300000E-01  1.33600000E-01  1.29000000E+00  3.18000000E-01
  1.05300000E-01  7.24200000E-01  4.65300000E-01  1.33600000E-01  1.29000000E+00
  3.18000000E-01  1.05300000E-01
Contraction coefficients                   R   N=          12
 -2.97310475E+00  3.48276424E+00  1.00000000E+00 -2.09237710E-01  1.10353475E+00
  1.00000000E+00 -2.97310475E+00  3.48276424E+00  1.00000000E+00 -2.09237710E-01
  1.10353475E+00  1.00000000E+00
Coordinates of each shell                  R   N=          24
  0.00000000E+00  0.00000000E+00 -2.51333575E+00  0.00000000E+00  0.00000000E+00
 -2.51333575E+00  0.00000000E+00  0.00000000E+00 -2.51333575E+00  0.00000000E+00
  0.00000000E+00 -2.51333575E+00  0.00000000E+00  0.00000000E+00  2.51333575E+00
  0.00000000E+00  0.00000000E+00  2.51333575E+00  0.00000000E+00  0.00000000E+00
  2.51333575E+00  0.00000000E+00  0.00000000E+00  2.51333575E+00
Overlap Matrix                             R   N=         136
  1.00000000E+00  8.09793900E-01  1.00000000E+00  0.00000000E+00  0.00000000E+00
  1.00000000E+00  0.00000000E+00  0.00000000E+00  0.00000000E+00  1.00000000E+00
 -1.85400968E-15 -3.88032076E-16  0.00000000E+00  0.00000000E+00  1.00000000E+00
  0.00000000E+00  0.00000000E+00  7.24581092E-01  0.00000000E+00  0.00000000E+00
  1.00000000E+00  0.00000000E+00  0.00000000E+00  0.00000000E+00  7.24581092E-01
  0.00000000E+00  0.00000000E+00  1.00000000E+00  4.65543417E-16  0.00000000E+00
  0.00000000E+00  0.00000000E+00  7.24581092E-01  0.00000000E+00  0.00000000E+00
  1.00000000E+00  1.93423357E-02  8.59024498E-02  0.00000000E+00  0.00000000E+00
  6.32649810E-02  0.00000000E+00  0.00000000E+00  2.72380946E-01  1.00000000E+00
  8.59024498E-02  1.84914065E-01  0.00000000E+00  0.00000000E+00  1.45145128E-01
  0.00000000E+00  0.00000000E+00  4.07677067E-01  8.09793900E-01  1.00000000E+00
  0.00000000E+00  0.00000000E+00  2.15021322E-02  0.00000000E+00  0.00000000E+00
  1.00304056E-01  0.00000000E+00  0.00000000E+00  0.00000000E+00  0.00000000E+00
  1.00000000E+00  0.00000000E+00  0.00000000E+00  0.00000000E+00  2.15021322E-02
  0.00000000E+00  0.00000000E+00  1.00304056E-01  0.00000000E+00  0.00000000E+00
  0.00000000E+00  0.00000000E+00  1.00000000E+00 -6.32649810E-02 -1.45145128E-01
  0.00000000E+00  0.00000000E+00 -1.49252517E-01  0.00000000E+00  0.00000000E+00
 -2.97326072E-01  1.85400968E-15  3.88032076E-16  0.00000000E+00  0.00000000E+00
  1.00000000E+00  0.00000000E+00  0.00000000E+00  1.00304056E-01  0.00000000E+00
  0.00000000E+00  2.64390000E-01  0.00000000E+00  0.00000000E+00  0.00000000E+00
  0.00000000E+00  7.24581092E-01  0.00000000E+00  0.00000000E+00  1.00000000E+00
  0.00000000E+00  0.00000000E+00  0.00000000E+00  1.00304056E-01  0.00000000E+00
  0.00000000E+00  2.64390000E-01  0.00000000E+00  0.00000000E+00  0.00000000E+00
  0.00000000E+00  7.24581092E-01  0.00000000E+00  0.00000000E+00  1.00000000E+00
 -2.72380946E-01 -4.07677067E-01  0.00000000E+00  0.00000000E+00 -2.97326072E-01
  0.00000000E+00  0.00000000E+00 -4.39061894E-01 -4.65543417E-16  0.00000000E+00
  0.00000000E+00  0.00000000E+00  7.24581092E-01  0.00000000E+00  0.00000000E+00
  1.00000000E+00
Core Hamiltonian Matrix                    R   N=         136
 -3.23396196E+00 -4.43965640E+00 -3.88425249E+00  0.00000000E+00  0.00000000E+00
 -3.97311590E+00  0.00000000E+00  0.00000000E+00  0.00000000E+00 -3.97311590E+00
 -2.94454297E-01 -3.11301883E-01  0.00000000E+00  0.00000000E+00 -4.11887035E+00
  0.00000000E+00  0.00000000E+00 -2.88287797E+00  0.00000000E+00  0.00000000E+00
 -3.33057373E+00  0.00000000E+00  0.00000000E+00  0.00000000E+00 -2.88287797E+00
  0.00000000E+00  0.00000000E+00 -3.33057373E+00 -1.99697113E-01 -3.55217682E-01
  0.00000000E+00  0.00000000E+00 -3.02650866E+00  0.00000000E+00  0.00000000E+00
 -3.63313945E+00 -1.28002102E-01 -4.81800057E-01  0.00000000E+00  0.00000000E+00
 -3.71475949E-01  0.00000000E+00  0.00000000E+00 -1.49562851E+00 -3.23396196E+00
 -4.81800057E-01 -8.57256043E-01  0.00000000E+00  0.00000000E+00 -7.35301582E-01
  0.00000000E+00  0.00000000E+00 -1.77129981E+00 -4.43965640E+00 -3.88425249E+00
  0.00000000E+00  0.00000000E+00 -1.12858670E-01  0.00000000E+00  0.00000000E+00
 -4.43325985E-01  0.00000000E+00  0.00000000E+00  0.00000000E+00  0.00000000E+00
 -3.97311590E+00  0.00000000E+00  0.00000000E+00  0.00000000E+00 -1.12858670E-01
  0.00000000E+00  0.00000000E+00 -4.43325985E-01  0.00000000E+00  0.00000000E+00
  0.00000000E+00  0.00000000E+00 -3.97311590E+00  3.71475949E-01  7.35301582E-01
  0.00000000E+00  0.00000000E+00  7.92770671E-01  0.00000000E+00  0.00000000E+00
  1.43583631E+00  2.94454297E-01  3.11301883E-01  0.00000000E+00  0.00000000E+00
 -4.11887035E+00  0.00000000E+00  0.00000000E+00 -4.43325985E-01  0.00000000E+00
  0.00000000E+00 -9.69388953E-01  0.00000000E+00  0.00000000E+00  0.00000000E+00
  0.00000000E+00 -2.88287797E+00  0.00000000E+00  0.00000000E+00 -3.33057373E+00
  0.00000000E+00  0.00000000E+00  0.00000000E+00 -4.43325985E-01  0.00000000E+00
  0.00000000E+00 -9.69388953E-01  0.00000000E+00  0.00000000E+00  0.00000000E+00
  0.00000000E+00 -2.88287797E+00  0.00000000E+00  0.00000000E+00 -3.33057373E+00
  1.49562851E+00  1.77129981E+00  0.00000000E+00  0.00000000E+00  1.43583631E+00
  0.00000000E+00  0.00000000E+00  1.90660384E+00  1.99697113E-01  3.55217682E-01
  0.00000000E+00  0.00000000E+00 -3.02650866E+00  0.00000000E+00  0.00000000E+00
 -3.63313945E+00
Localized Alpha MO Coefficients (IBO)      R   N=         112
 -1.37680224E-02 -4.06935617E-02 -2.48425765E-16 -1.41240774E-16 -8.04437253E-03
  1.44777350E-16 -7.18325733E-18 -4.27626001E-02  4.02479427E-01  6.63776715E-01
 -2.29434464E-16  5.49834496E-16  3.62094976E-02 -9.35727302E-17  6.02611064E-17
  3.43808568E-02 -4.02479427E-01 -6.63776715E-01 -1.05975989E-15  1.57691039E-16
  3.62094976E-02 -1.08288894E-15 -1.01748123E-16  3.43808568E-02  1.37680224E-02
  4.06935617E-02  2.03983594E-18 -8.16752554E-17 -8.04437253E-03  5.45078561E-16
  1.11462841E-16 -4.27626001E-02  3.69453451E-03 -4.62362067E-02 -3.29290154E-17
 -4.75421173E-17  4.21681286E-01  2.44258455E-16  2.85650331E-16  2.51542616E-01
  3.69453451E-03 -4.62362067E-02 -1.56910174E-15  6.65931905E-16 -4.21681286E-01
 -7.38093208E-16  2.60384614E-16 -2.51542616E-01 -1.45555690E-16 -3.25409369E-16
 -2.81371466E-02  6.72029378E-17  4.21241843E-16 -4.42101393E-02  3.19188696E-17
 -1.11448263E-15  2.20553964E-16  7.13359972E-16  5.76760600E-01  1.40903457E-16
 -1.85125766E-15  5.08380766E-01  5.30165539E-16 -1.38527509E-15 -3.52872401E-17
  1.63706911E-16 -1.94741143E-16 -2.81371466E-02  1.15762878E-16  5.44763802E-16
 -4.42101394E-02  8.56614272E-17 -1.01833856E-16 -2.21818207E-16 -2.08755622E-16
  5.76760600E-01  9.14071460E-16 -3.18992792E-16  5.08380767E-01  5.18340427E-16
 -7.79915058E-16 -1.00931514E-15  5.76760600E-01 -3.72059399E-15 -9.27225317E-17
  5.08380766E-01 -3.27545266E-15  2.76038073E-17  7.86645054E-17  1.92527425E-16
 -2.81371466E-02 -2.88787175E-16  2.03747579E-16 -4.42101393E-02  1.07918278E-15
 -8.93486390E-17 -5.89082235E-17  7.81086841E-17 -2.84806298E-15 -5.76760600E-01
  3.02853841E-16 -3.35460373E-15 -5.08380767E-01  2.17784666E-16 -1.00966182E-16
  4.53209973E-17 -1.29031996E-16  2.81371466E-02 -1.11525253E-17  8.09307765E-16
  4.42101394E-02  8.92104719E-17
Localized Beta  MO Coefficients (IBO)      R   N=         112
 -1.37680224E-02 -4.06935617E-02 -2.48425765E-16 -1.41240774E-16 -8.04437253E-03
  1.44777350E-16 -7.18325733E-18 -4.27626001E-02  4.02479427E-01  6.63776715E-01
 -2.29434464E-16  5.49834496E-16  3.62094976E-02 -9.35727302E-17  6.02611064E-17
  3.43808568E-02 -4.02479427E-01 -6.63776715E-01 -1.05975989E-15  1.57691039E-16
  3.62094976E-02 -1.08288894E-15 -1.01748123E-16  3.43808568E-02  1.37680224E-02
  4.06935617E-02  2.03983594E-18 -8.16752554E-17 -8.04437253E-03  5.45078561E-16
  1.11462841E-16 -4.27626001E-02  3.69453451E-03 -4.62362067E-02 -3.29290154E-17
 -4.75421173E-17  4.21681286E-01  2.44258455E-16  2.85650331E-16  2.51542616E-01
  3.69453451E-03 -4.62362067E-02 -1.56910174E-15  6.65931905E-16 -4.21681286E-01
 -7.38093208E-16  2.60384614E-16 -2.51542616E-01 -1.45555690E-16 -3.25409369E-16
 -2.81371466E-02  6.72029378E-17  4.21241843E-16 -4.42101393E-02  3.19188696E-17
 -1.11448263E-15  2.20553964E-16  7.13359972E-16  5.76760600E-01  1.40903457E-16
 -1.85125766E-15  5.08380766E-01  5.30165539E-16 -1.38527509E-15 -3.52872401E-17
  1.63706911E-16 -1.94741143E-16 -2.81371466E-02  1.15762878E-16  5.44763802E-16
 -4.42101394E-02  8.56614272E-17 -1.01833856E-16 -2.21818207E-16 -2.08755622E-16
  5.76760600E-01  9.14071460E-16 -3.18992792E-16  5.08380767E-01  5.18340427E-16
 -7.79915058E-16 -1.00931514E-15  5.76760600E-01 -3.72059399E-15 -9.27225317E-17
  5.08380766E-01 -3.27545266E-15  2.76038073E-17  7.86645054E-17  1.92527425E-16
 -2.81371466E-02 -2.88787175E-16  2.03747579E-16 -4.42101393E-02  1.07918278E-15
 -8.93486390E-17 -5.89082235E-17  7.81086841E-17 -2.84806298E-15 -5.76760600E-01
  3.02853841E-16 -3.35460373E-15 -5.08380767E-01  2.17784666E-16 -1.00966182E-16
  4.53209973E-17 -1.29031996E-16  2.81371466E-02 -1.11525253E-17  8.09307765E-16
  4.42101394E-02  8.92104719E-17
Localized Alpha MO Coefficients (OSLO)     R   N=         112
  4.02457725E-01  6.62505160E-01 -5.12563231E-16 -1.89133322E-16 -2.61982409E-02
 -2.49324171E-16  2.31967374E-17 -2.83946415E-02 -1.37897253E-02 -4.19651173E-02
  2.10149469E-16  1.52176082E-16 -1.96688415E-03 -3.25157240E-16 -1.02160284E-16
  3.67763849E-02 -1.68484324E-16 -5.52057282E-16 -5.76760600E-01  7.66886081E-07
 -1.50910366E-17 -5.08380766E-01  6.75965269E-07 -2.28164640E-17  4.62568851E-17
  7.47196667E-17  2.81371466E-02 -3.74123782E-08 -1.72694461E-17  4.42101393E-02
 -5.87837328E-08  8.02785890E-17 -1.13613841E-16 -8.07192233E-18 -7.66886081E-07
 -5.76760600E-01  3.44823116E-16 -6.75965269E-07 -5.08380767E-01  2.27590274E-16
 -1.08417816E-16  2.79642758E-17  3.74123786E-08  2.81371466E-02 -4.46361613E-17
  5.87837326E-08  4.42101394E-02  6.31494048E-17 -1.37897253E-02 -4.19651173E-02
 -1.13177109E-16 -7.81812887E-17  1.96688415E-03  1.90472692E-16  1.18629380E-16
 -3.67763849E-02  4.02457725E-01  6.62505160E-01 -3.93573861E-16  3.80576640E-16
  2.61982409E-02 -1.53771682E-16 -4.26486215E-17  2.83946415E-02 -2.17279095E-16
 -4.68883206E-16 -2.81371466E-02 -1.53813912E-08  5.43532647E-16 -4.42101393E-02
 -2.41678184E-08 -1.00748463E-15  2.06645257E-16  6.74584750E-16  5.76760600E-01
  3.15290690E-07 -1.81802421E-15  5.08380766E-01  2.77910320E-07 -1.47447880E-15
  4.12555623E-18  2.19037496E-16  1.53813907E-08 -2.81371466E-02  2.39675390E-17
  2.41678187E-08 -4.42101394E-02  1.17308580E-16 -1.71514096E-16 -3.37131904E-16
 -3.15290690E-07  5.76760600E-01  7.65257775E-16 -2.77910320E-07  5.08380767E-01
  4.94109674E-16  5.52458123E-03  6.09846115E-02  1.45169438E-16 -2.50869550E-16
 -4.22493467E-01 -1.92962282E-17 -5.52022006E-16 -2.53230355E-01  5.52458123E-03
  6.09846115E-02  1.55013662E-15 -8.34938360E-16  4.22493467E-01  5.38602395E-16
 -4.36413897E-16  2.53230355E-01
Localized Beta  MO Coefficients (OSLO)     R   N=         112
  4.02457725E-01  6.62505160E-01 -5.12563231E-16 -1.89133322E-16 -2.61982409E-02
 -2.49324171E-16  2.31967374E-17 -2.83946415E-02 -1.37897253E-02 -4.19651173E-02
  2.10149469E-16  1.52176082E-16 -1.96688415E-03 -3.25157240E-16 -1.02160284E-16
  3.67763849E-02 -1.68484324E-16 -5.52057282E-16 -5.76760600E-01  7.66886081E-07
 -1.50910366E-17 -5.08380766E-01  6.75965269E-07 -2.28164640E-17  4.62568851E-17
  7.47196667E-17  2.81371466E-02 -3.74123782E-08 -1.72694461E-17  4.42101393E-02
 -5.87837328E-08  8.02785890E-17 -1.13613841E-16 -8.07192233E-18 -7.66886081E-07
 -5.76760600E-01  3.44823116E-16 -6.75965269E-07 -5.08380767E-01  2.27590274E-16
 -1.08417816E-16  2.79642758E-17  3.74123786E-08  2.81371466E-02 -4.46361613E-17
  5.87837326E-08  4.42101394E-02  6.31494048E-17 -1.37897253E-02 -4.19651173E-02
 -1.13177109E-16 -7.81812887E-17  1.96688415E-03  1.90472692E-16  1.18629380E-16
 -3.67763849E-02  4.02457725E-01  6.62505160E-01 -3.93573861E-16  3.80576640E-16
  2.61982409E-02 -1.53771682E-16 -4.26486215E-17  2.83946415E-02 -2.17279095E-16
 -4.68883206E-16 -2.81371466E-02 -1.53813912E-08  5.43532647E-16 -4.42101393E-02
 -2.41678184E-08 -1.00748463E-15  2.06645257E-16  6.74584750E-16  5.76760600E-01
  3.15290690E-07 -1.81802421E-15  5.08380766E-01  2.77910320E-07 -1.47447880E-15
  4.12555623E-18  2.19037496E-16  1.53813907E-08 -2.81371466E-02  2.39675390E-17
  2.41678187E-08 -4.42101394E-02  1.17308580E-16 -1.71514096E-16 -3.37131904E-16
 -3.15290690E-07  5.76760600E-01  7.65257775E-16 -2.77910320E-07  5.08380767E-01
  4.94109674E-16  5.52458123E-03  6.09846115E-02  1.45169438E-16 -2.50869550E-16
 -4.22493467E-01 -1.92962282E-17 -5.52022006E-16 -2.53230355E-01  5.52458123E-03
  6.09846115E-02  1.55013662E-15 -8.34938360E-16  4.22493467E-01  5.38602395E-16
 -4.36413897E-16  2.53230355E-01
Number of independent functions            I               16
Alpha MO coefficients                      R   N=         256
  4.02457725E-01  6.62505160E-01 -5.12563231E-16 -1.89133322E-16 -2.61982409E-02
 -2.49324171E-16  2.31967374E-17 -2.83946415E-02 -1.37897253E-02 -4.19651173E-02
  2.10149469E-16  1.52176082E-16 -1.96688415E-03 -3.25157240E-16 -1.02160284E-16
  3.67763849E-02 -1.68484324E-16 -5.52057282E-16 -5.76760600E-01  7.66886081E-07
 -1.50910366E-17 -5.08380766E-01  6.75965269E-07 -2.28164640E-17  4.62568851E-17
  7.47196667E-17  2.81371466E-02 -3.74123782E-08 -1.72694461E-17  4.42101393E-02
 -5.87837328E-08  8.02785890E-17 -1.13613841E-16 -8.07192233E-18 -7.66886081E-07
 -5.76760600E-01  3.44823116E-16 -6.75965269E-07 -5.08380767E-01  2.27590274E-16
 -1.08417816E-16  2.79642758E-17  3.74123786E-08  2.81371466E-02 -4.46361613E-17
  5.87837326E-08  4.42101394E-02  6.31494048E-17 -1.37897253E-02 -4.19651173E-02
 -1.13177109E-16 -7.81812887E-17  1.96688415E-03  1.90472692E-16  1.18629380E-16
 -3.67763849E-02  4.02457725E-01  6.62505160E-01 -3.93573861E-16  3.80576640E-16
  2.61982409E-02 -1.53771682E-16 -4.26486215E-17  2.83946415E-02 -2.17279095E-16
 -4.68883206E-16 -2.81371466E-02 -1.53813912E-08  5.43532647E-16 -4.42101393E-02
 -2.41678184E-08 -1.00748463E-15  2.06645257E-16  6.74584750E-16  5.76760600E-01
  3.15290690E-07 -1.81802421E-15  5.08380766E-01  2.77910320E-07 -1.47447880E-15
  4.12555623E-18  2.19037496E-16  1.53813907E-08 -2.81371466E-02  2.39675390E-17
  2.41678187E-08 -4.42101394E-02  1.17308580E-16 -1.71514096E-16 -3.37131904E-16
 -3.15290690E-07  5.76760600E-01  7.65257775E-16 -2.77910320E-07  5.08380767E-01
  4.94109674E-16  5.52458123E-03  6.09846115E-02  1.45169438E-16 -2.50869550E-16
 -4.22493467E-01 -1.92962282E-17 -5.52022006E-16 -2.53230355E-01  5.52458123E-03
  6.09846115E-02  1.55013662E-15 -8.34938360E-16  4.22493467E-01  5.38602395E-16
 -4.36413897E-16  2.53230355E-01 -9.07003036E-02 -1.83964692E-01  9.47469330E-15
  2.27072648E-15  7.50722305E-01  4.85555771E-16 -5.65920360E-16 -1.13173548E-01
  9.07003036E-02  1.83964692E-01 -6.25031993E-15 -7.11038062E-16  7.50722305E-01
 -2.35401764E-15  2.37041926E-15 -1.13173548E-01 -5.06929892E-16 -1.19033907E-15
 -2.05646640E-06 -7.55815210E-01  1.73840000E-15  2.48655812E-06  9.13887262E-01
 -4.96317693E-15 -4.39112326E-16  1.98749708E-15 -2.05646640E-06 -7.55815210E-01
  2.04573017E-15  2.48655812E-06  9.13887262E-01 -5.55291125E-15  4.44849031E-16
 -4.23269835E-16 -7.55815210E-01  2.05646640E-06  4.77969970E-15  9.13887262E-01
 -2.48655812E-06 -6.50184726E-15  7.02548426E-16  1.40849850E-15 -7.55815210E-01
  2.05646640E-06 -8.05330198E-16  9.13887262E-01 -2.48655812E-06  2.15793872E-17
 -6.67819998E-02 -2.05070379E-01 -6.45019397E-15 -7.53758916E-16 -8.84783831E-01
  9.65510556E-15  1.29840766E-15  1.03709975E+00 -6.67819998E-02 -2.05070379E-01
  2.16503971E-15  1.41776850E-15  8.84783831E-01 -4.19993917E-15 -1.83469303E-15
 -1.03709975E+00  1.01887106E-15  8.11152844E-15  1.25996708E-06 -7.57378905E-01
 -1.01857804E-14 -2.02466110E-06  1.21704419E+00  2.56613024E-14 -1.05744093E-15
 -7.62773955E-15 -1.25996708E-06  7.57378905E-01 -1.19252344E-14  2.02466110E-06
 -1.21704419E+00  2.83618504E-14 -9.17389555E-16 -4.96403510E-15  7.57378905E-01
  1.25996708E-06  2.33920629E-15 -1.21704419E+00 -2.02466110E-06 -9.08124439E-15
  3.84035001E-16  3.47914418E-15 -7.57378905E-01 -1.25996708E-06  1.17212650E-14
  1.21704419E+00  2.02466110E-06 -2.00526600E-14  6.98141384E-02  4.35352703E-01
  5.62075125E-15  1.07691229E-14 -6.45902314E-01 -9.42626695E-15 -1.81335303E-14
  1.51309275E+00 -6.98141384E-02 -4.35352703E-01 -7.88929980E-15 -1.51970560E-14
 -6.45902314E-01  1.27744024E-14  2.36877482E-14  1.51309275E+00  1.17400694E+00
 -1.06281259E+00 -1.56571989E-16 -1.92911183E-16  3.08114726E-02  1.71368676E-16
  8.13796556E-17  4.19390993E-02  1.17400694E+00 -1.06281259E+00  5.93172286E-16
 -5.76119408E-16 -3.08114726E-02 -5.06615990E-16  3.95769783E-16 -4.19390993E-02
 -1.21913454E+00  1.50956714E+00 -1.44463090E-16 -5.19492841E-17 -9.01808564E-02
 -6.34784945E-17  2.49428594E-16  5.19256525E-01  1.21913454E+00 -1.50956714E+00
 -4.74276007E-17  4.09867233E-16 -9.01808564E-02 -1.91186843E-16 -4.78192971E-16
  5.19256525E-01
Alpha Orbital Energies                     R   N=          16
 -4.75215263E+00 -4.50681325E+00 -4.00083723E+00 -4.00083723E+00 -3.96490202E+00
 -3.94616719E+00 -3.94616719E+00 -3.85692508E+00 -2.66081717E+00 -2.66081717E+00
 -2.56480041E+00 -2.42865984E+00 -2.42865984E+00 -2.33337852E+00  4.61781473E+00
  6.38137043E+00
Total SCF Density                          R   N=         136
  3.24385795E-01  5.35091842E-01  8.88786561E-01 -5.35325231E-17  2.58008330E-16
  6.66888978E-01 -2.40244912E-17 -2.49307211E-16 -1.09212120E-15  6.66888977E-01
 -2.58098134E-02 -8.64092206E-02 -1.63856417E-16 -3.99482380E-16  3.58381893E-01
  1.14492879E-16  4.71363167E-16  5.88915886E-01  1.37260435E-16 -4.88250085E-17
  5.20811080E-01  1.23928949E-16 -3.11911970E-17 -7.73904152E-16  5.88915886E-01
 -7.68026167E-17  2.56057661E-16  5.20811081E-01 -2.46389965E-02 -6.54228521E-02
  5.76909778E-18 -2.49767301E-16  2.15319451E-01  8.72907189E-17 -7.77717559E-17
  1.32568742E-01 -2.21380839E-02 -5.13760707E-02 -1.04004530E-16 -1.37715861E-17
 -2.36249043E-03  1.23360962E-16  1.31635959E-16 -3.16167551E-02  3.24385795E-01
 -5.13760707E-02 -1.03770181E-01 -1.55156043E-16 -2.48808980E-16 -4.67262336E-02
  1.80948063E-16 -2.29531688E-17 -7.72322302E-02  5.35091842E-01  8.88786561E-01
 -6.73534115E-17 -7.71144150E-17 -6.49135902E-02  5.77851928E-16 -7.45276547E-16
 -7.96061013E-02  4.29928547E-16 -1.96993980E-15  3.28887097E-17  5.98763918E-16
  6.66888978E-01  6.46224980E-17  2.73261093E-16 -8.17488659E-16 -6.49135902E-02
  5.83229709E-16  2.27293632E-16 -7.96061014E-02  4.23885974E-16  2.39839027E-16
  2.72676641E-16 -9.55624106E-17  6.66888977E-01  2.36249043E-03  4.67262336E-02
  2.87865688E-16  9.22775910E-18 -3.56795344E-01  2.12328668E-16 -2.98371320E-16
 -2.15791597E-01  2.58098134E-02  8.64092206E-02 -7.53821166E-16  3.69595622E-16
  3.58381893E-01 -4.96179316E-16 -8.91160640E-16 -7.96061013E-02 -4.58490550E-16
  7.13553826E-17 -8.99023381E-02 -4.72806814E-16 -1.30181816E-15  1.89791261E-16
  7.26228022E-16  5.88915886E-01 -2.31669361E-16 -1.35410549E-15  5.20811080E-01
 -1.23781507E-16 -5.15312602E-18  8.59548524E-16 -7.96061014E-02  2.93013245E-16
  1.54022221E-15 -8.99023383E-02  2.76362650E-16 -8.46001253E-17 -1.99683426E-16
  2.43456349E-16  5.88915886E-01  5.50686439E-16  6.49418428E-17  5.20811081E-01
  3.16167551E-02  7.72322302E-02  6.31654151E-17 -1.20142162E-16 -2.15791597E-01
  6.84095780E-17 -2.71851589E-16 -1.32428235E-01  2.46389965E-02  6.54228521E-02
 -8.81752704E-16  2.90155474E-16  2.15319451E-01 -1.22141752E-15  3.66634051E-16
  1.32568742E-01
Pure Switching                             I                1
Dipole_Data                                R   N=           3
 -3.79696505E-15 -3.28010856E-15 -7.02536424E-14
Quadrupole_Data                            R   N=           6
 -4.19485693E+01  1.36091572E-16 -4.19485693E+01  1.36019743E-14 -7.07584438E-15
 -3.67382658E+01
Octapole_Data                              R   N=          10
 -4.42382057E-15 -1.18208821E-15 -1.47460686E-15 -3.54626463E-15 -4.48814923E-14
 -3.65251721E-15 -5.89473008E-14  1.61314072E-14 -2.13822872E-14 -2.31374207E-13
Hexadecapole_Data                          R   N=          15
 -7.56597646E+01 -4.56206902E-15 -2.52199215E+01 -4.56206902E-15 -7.56597646E+01
  2.06471937E-14 -2.41381856E-15  6.88239791E-15 -7.24145568E-15 -9.76403602E+01
  2.34906079E-15 -9.76403602E+01  9.07522895E-14 -2.94258860E-14 -4.24166998E+02
