Jobname.Temp
SP        R                             cc-pVDZ             
Number of atoms                            I                3
Charge                                     I                0
Multiplicity                               I                1
Number of electrons                        I               10
Number of alpha electrons                  I                5
Number of beta electrons                   I                5
Atomic numbers                             I   N=           3
           8           1           1
Current cartesian coordinates              R   N=           9
  1.03842175E-32  2.71229754E-17  2.21475902E-01 -1.43052268E+00  4.39193533E-16
 -8.85903607E-01  1.43052268E+00 -6.56177336E-16 -8.85903607E-01
Nuclear charges                            R   N=           3
  8.00000000E+00  1.00000000E+00  1.00000000E+00
Number of basis functions                  I               24
Number of contracted shells                I               12
Number of primitive shells                 I               30
Highest angular momentum                   I                2
Largest degree of contraction              I                7
Shell types                                I   N=          12
           0           0           0           1           1          -2
           0           0           1           0           0           1
Number of primitives per shell             I   N=          12
           7           7           1           3           1           1
           3           1           1           3           1           1
Shell to atom map                          I   N=          12
           1           1           1           1           1           1
           2           2           2           3           3           3
Primitive exponents                        R   N=          30
  1.17200000E+04  1.75900000E+03  4.00800000E+02  1.13700000E+02  3.70300000E+01
  1.32700000E+01  5.02500000E+00  1.17200000E+04  1.75900000E+03  1.13700000E+02
  3.70300000E+01  1.32700000E+01  5.02500000E+00  1.01300000E+00  3.02300000E-01
  1.77000000E+01  3.85400000E+00  1.04600000E+00  2.75300000E-01  1.18500000E+00
  1.30100000E+01  1.96200000E+00  4.44600000E-01  1.22000000E-01  7.27000000E-01
  1.30100000E+01  1.96200000E+00  4.44600000E-01  1.22000000E-01  7.27000000E-01
Contraction coefficients                   R   N=          30
  7.11859989E-04  5.48520206E-03  2.79099247E-02  1.05133208E-01  2.84002488E-01
  4.51673950E-01  2.73208124E-01 -3.13436252E-07 -6.17665315E-05 -4.15726173E-03
 -1.41000865E-02 -1.26138482E-01 -1.09614593E-01  1.09868833E+00  1.00000000E+00
  6.26791663E-02  3.33536566E-01  7.41239642E-01  1.00000000E+00  1.00000000E+00
  3.34987264E-02  2.34800801E-01  8.13682958E-01  1.00000000E+00  1.00000000E+00
  3.34987264E-02  2.34800801E-01  8.13682958E-01  1.00000000E+00  1.00000000E+00
Coordinates of each shell                  R   N=          36
  1.03842175E-32  2.71229754E-17  2.21475902E-01  1.03842175E-32  2.71229754E-17
  2.21475902E-01  1.03842175E-32  2.71229754E-17  2.21475902E-01  1.03842175E-32
  2.71229754E-17  2.21475902E-01  1.03842175E-32  2.71229754E-17  2.21475902E-01
  1.03842175E-32  2.71229754E-17  2.21475902E-01 -1.43052268E+00  4.39193533E-16
 -8.85903607E-01 -1.43052268E+00  4.39193533E-16 -8.85903607E-01 -1.43052268E+00
  4.39193533E-16 -8.85903607E-01  1.43052268E+00 -6.56177336E-16 -8.85903607E-01
  1.43052268E+00 -6.56177336E-16 -8.85903607E-01  1.43052268E+00 -6.56177336E-16
 -8.85903607E-01
Overlap Matrix                             R   N=         300
  1.00000000E+00  2.14476014E-01  1.00000000E+00  1.83816867E-01  7.92109402E-01
  1.00000000E+00  5.72204388E-49 -9.87718776E-49  9.40225641E-50  1.00000000E+00
 -2.67842048E-33 -4.42830221E-33  1.51055599E-33  1.24233395E-80  1.00000000E+00
 -5.23322702E-18 -1.71320900E-17 -3.20588013E-17  1.11899494E-64  2.75765037E-49
  1.00000000E+00  2.08600014E-49 -7.35140560E-50 -1.43367686E-48  5.01271483E-01
  1.96464908E-80  8.59212292E-65  1.00000000E+00  2.29431890E-34 -2.69880348E-33
  0.00000000E+00  1.96464908E-80  5.01271483E-01  1.99239087E-49  0.00000000E+00
  1.00000000E+00  5.19780141E-18 -2.56674106E-17  0.00000000E+00  8.59212292E-65
  1.99239087E-49  5.01271483E-01  4.18260768E-65  0.00000000E+00  1.00000000E+00
  0.00000000E+00  0.00000000E+00  0.00000000E+00 -1.64898832E-48 -3.67341667E-33
  6.61743918E-17  0.00000000E+00  2.09635337E-33  0.00000000E+00  1.00000000E+00
  3.42806564E-65 -1.37492878E-65  0.00000000E+00  5.73087044E-17  1.40624608E-96
  2.85613155E-48  0.00000000E+00  0.00000000E+00  0.00000000E+00  0.00000000E+00
  1.00000000E+00  1.35107115E-49 -6.09069546E-50  0.00000000E+00  1.40624608E-96
  5.73087044E-17  6.36254431E-33  0.00000000E+00  0.00000000E+00 -3.63099054E-33
  0.00000000E+00  0.00000000E+00  1.00000000E+00  2.95546284E-18  3.53361838E-17
  4.56638999E-17  2.85613155E-48 -6.36254431E-33 -2.02388945E-34  0.00000000E+00
  3.63099054E-33  0.00000000E+00  2.47902802E-17  0.00000000E+00  0.00000000E+00
  1.00000000E+00  7.60924399E-81  1.88067298E-80  0.00000000E+00  6.36254431E-33
  2.85613155E-48  1.40624608E-96 -3.63099054E-33  0.00000000E+00  0.00000000E+00
  0.00000000E+00  0.00000000E+00  0.00000000E+00  0.00000000E+00  1.00000000E+00
  4.98679859E-02  2.99384280E-01  4.97159078E-01 -2.23067620E-01  6.42559534E-17
 -1.72678501E-01 -4.92173086E-01  1.41773382E-16 -3.80995282E-01  1.43207900E-02
  1.93475696E-01 -5.57318238E-17  1.24966810E-01 -7.19948645E-17  1.00000000E+00
  6.49317012E-02  3.55190441E-01  6.48025774E-01 -8.39416192E-02  2.41798822E-17
 -6.49799060E-02 -3.09747228E-01  8.92245296E-17 -2.39777907E-01  1.49642491E-03
  2.02168909E-02 -5.82359556E-18  1.30581795E-02 -7.52297242E-18  6.84860251E-01
  1.00000000E+00  8.30132485E-02  3.57190082E-01  3.09690076E-01 -1.64078287E-01
  1.03710481E-16 -2.78706789E-01  7.15761141E-02  9.22111153E-17 -2.47803921E-01
  1.71940595E-01  1.64491748E-01 -1.03516993E-16 -1.96230305E-02 -6.12095543E-17
  2.98375835E-16  2.22505918E-16  1.00000000E+00 -2.39124595E-17 -1.02890725E-16
 -8.92080665E-17  1.03710481E-16  1.95957615E-01  8.02831465E-17  9.22111153E-17
  3.91691418E-01  7.13813918E-17 -4.95285102E-17 -1.03516993E-16 -1.94872450E-01
 -1.39376700E-16 -2.51737961E-01 -6.62527444E-32 -9.88124772E-32  0.00000000E+00
  1.00000000E+00  6.42612466E-02  2.76503815E-01  2.39733665E-01 -2.78706789E-01
  8.02831465E-17 -1.97916293E-02 -2.47803921E-01  7.13813918E-17  1.99864340E-01
 -2.04428339E-01  2.64488560E-02 -7.61875013E-18  1.79682099E-01 -1.03516993E-16
  1.49187918E-16  1.11252959E-16  0.00000000E+00  0.00000000E+00  1.00000000E+00
  4.98679859E-02  2.99384280E-01  4.97159078E-01  2.23067620E-01 -1.06549988E-16
 -1.72678501E-01  4.92173086E-01 -2.35090312E-16 -3.80995282E-01  1.43207900E-02
 -1.93475696E-01  9.24151748E-17  1.24966810E-01 -1.19382743E-16  1.21119987E-01
  3.07571853E-01  1.59833745E-01 -6.11934472E-17  1.54030844E-17  1.00000000E+00
  6.49317012E-02  3.55190441E-01  6.48025774E-01  8.39416192E-02 -4.00953690E-17
 -6.49799060E-02  3.09747228E-01 -1.47953179E-16 -2.39777907E-01  1.49642491E-03
 -2.02168909E-02  9.65675560E-18  1.30581795E-02 -1.24746826E-17  3.07571853E-01
  6.06942991E-01  1.75184894E-01 -6.70707400E-17  4.73075003E-17  6.84860251E-01
  1.00000000E+00 -8.30132485E-02 -3.57190082E-01 -3.09690076E-01 -1.64078287E-01
  1.71973956E-16  2.78706789E-01  7.15761141E-02  1.52905571E-16  2.47803921E-01
 -1.71940595E-01  1.64491748E-01 -1.71653112E-16  1.96230305E-02  1.01498413E-16
 -1.59833745E-01 -1.75184894E-01 -2.52615755E-01  1.16250579E-16  2.35653646E-17
 -2.98375835E-16 -2.22505918E-16  1.00000000E+00  3.96519255E-17  1.70614628E-16
  1.47925880E-16  1.71973956E-16  1.95957615E-01 -1.33126471E-16  1.52905571E-16
  3.91691418E-01 -1.18365475E-16  8.21287662E-17 -1.71653112E-16 -1.94872450E-01
  2.31116106E-16  2.51737961E-01  6.11934472E-17  6.70707400E-17  1.16250579E-16
  5.10240333E-02 -9.02216173E-33  1.68772572E-33  0.00000000E+00  0.00000000E+00
  1.00000000E+00  6.42612466E-02  2.76503815E-01  2.39733665E-01  2.78706789E-01
 -1.33126471E-16 -1.97916293E-02  2.47803921E-01 -1.18365475E-16  1.99864340E-01
 -2.04428339E-01 -2.64488560E-02  1.26335023E-17  1.79682099E-01 -1.71653112E-16
  1.54030844E-17  4.73075003E-17 -2.35653646E-17  9.02216173E-33  5.10240333E-02
  1.49187918E-16  1.11252959E-16  0.00000000E+00  0.00000000E+00  1.00000000E+00
Core Hamiltonian Matrix                    R   N=         300
 -3.30445786E+01 -6.61318363E+00 -9.72114592E+00 -5.84006963E+00 -7.64461384E+00
 -7.61956807E+00  0.00000000E+00  0.00000000E+00  0.00000000E+00 -8.56253773E+00
  0.00000000E+00  0.00000000E+00  0.00000000E+00  0.00000000E+00 -8.45620600E+00
  2.81555813E-02  1.83452696E-01  1.77925761E-01  0.00000000E+00  0.00000000E+00
 -8.51992462E+00  0.00000000E+00  0.00000000E+00  0.00000000E+00 -3.84860424E+00
  0.00000000E+00  0.00000000E+00 -4.83239854E+00  0.00000000E+00  0.00000000E+00
  0.00000000E+00  0.00000000E+00 -3.75147734E+00  0.00000000E+00  0.00000000E+00
 -4.60666380E+00  4.08416140E-03  1.18069107E-01  2.42181267E-01  0.00000000E+00
  0.00000000E+00 -3.80968002E+00  0.00000000E+00  0.00000000E+00 -4.74193392E+00
 -2.51912485E-04 -9.51432019E-03 -1.28774087E-02  0.00000000E+00  0.00000000E+00
  1.47617700E-01  0.00000000E+00  0.00000000E+00  1.27132332E-01 -4.34434678E+00
  0.00000000E+00  0.00000000E+00  0.00000000E+00  2.11466842E-01  0.00000000E+00
  0.00000000E+00  2.20588336E-01  0.00000000E+00  0.00000000E+00  0.00000000E+00
 -4.49039167E+00  0.00000000E+00  0.00000000E+00  0.00000000E+00  0.00000000E+00
  1.23474327E-01  0.00000000E+00  0.00000000E+00  1.04330921E-01  0.00000000E+00
  0.00000000E+00  0.00000000E+00 -4.29538787E+00 -2.19825161E-03 -8.30243474E-02
 -1.12371502E-01  0.00000000E+00  0.00000000E+00  4.39962574E-02  0.00000000E+00
  0.00000000E+00  5.81287072E-02  4.74228405E-02  0.00000000E+00  0.00000000E+00
 -4.37525008E+00  0.00000000E+00  0.00000000E+00  0.00000000E+00  0.00000000E+00
  0.00000000E+00  0.00000000E+00  0.00000000E+00  0.00000000E+00  0.00000000E+00
  0.00000000E+00  0.00000000E+00  0.00000000E+00  0.00000000E+00 -4.33176456E+00
 -1.58762921E+00 -2.85193894E+00 -3.46624887E+00  1.76308837E+00  5.02855839E-17
  1.40666693E+00  2.52639309E+00  9.74307295E-17  2.01006131E+00 -1.17859045E-01
 -1.21551483E+00 -8.71191613E-17 -7.85481906E-01 -1.12541306E-16 -5.13361961E+00
 -2.06497303E+00 -3.36369986E+00 -4.21955620E+00  6.53955674E-01  1.13946118E-17
  5.85631681E-01  1.34055236E+00  3.35403020E-17  1.19121764E+00 -3.24499550E-02
 -1.63549359E-01 -4.04275056E-18 -1.47327175E-01 -5.22246105E-18 -3.57067941E+00
 -4.21775874E+00 -2.63950942E+00 -3.47981697E+00 -2.89538955E+00  1.28717469E+00
  1.86959821E-16  2.20702081E+00  7.95117322E-02  1.04825519E-16  1.59378974E+00
 -9.58860726E-01 -7.75466399E-01 -2.82222647E-16  1.62704085E-01 -2.32224344E-16
 -1.23444403E+00 -1.05832404E+00 -4.22083474E+00 -9.97086622E-18 -1.00650697E-16
 -6.86173111E-17  1.86959821E-16 -1.48788538E+00  1.44727153E-16  1.04825519E-16
 -1.90867427E+00  8.11463064E-17 -9.73039671E-17 -2.82222647E-16  1.05806804E+00
 -3.14642234E-16  1.33571333E+00  0.00000000E+00  0.00000000E+00  0.00000000E+00
 -3.38370579E+00 -2.04200990E+00 -2.66391739E+00 -2.18854891E+00  2.13919727E+00
  1.44727153E-16  1.95471025E-01  1.51359072E+00  8.11463064E-17 -7.23967566E-01
  1.09243644E+00 -7.51542990E-02 -8.61175246E-17 -9.01452729E-01 -2.82222647E-16
 -8.96110647E-01 -7.63616934E-01 -6.13936557E-01  0.00000000E+00 -3.85895919E+00
 -1.58762921E+00 -2.85193894E+00 -3.46624887E+00 -1.76308837E+00 -8.33841548E-17
  1.40666693E+00 -2.52639309E+00 -1.61560797E-16  2.01006131E+00 -1.17859045E-01
  1.21551483E+00  1.44462032E-16 -7.85481906E-01 -1.86617335E-16 -9.42223933E-01
 -1.88772423E+00 -1.29470776E+00 -6.03679050E-19 -2.15394246E-01 -5.13361961E+00
 -2.06497303E+00 -3.36369986E+00 -4.21955620E+00 -6.53955674E-01 -1.88946812E-17
  5.85631681E-01 -1.34055236E+00 -5.56169287E-17  1.19121764E+00 -3.24499550E-02
  1.63549359E-01  6.70373719E-18 -1.47327175E-01 -8.65994719E-18 -1.88772423E+00
 -2.96397208E+00 -1.48809338E+00 -2.30504390E-17 -4.70407484E-01 -3.57067941E+00
 -4.21775874E+00  2.63950942E+00  3.47981697E+00  2.89538955E+00  1.28717469E+00
  3.10019004E-16 -2.20702081E+00  7.95117322E-02  1.73822925E-16 -1.59378974E+00
  9.58860726E-01 -7.75466399E-01 -4.67984958E-16 -1.62704085E-01  3.85077177E-16
  1.29470776E+00  1.48809338E+00  1.98882625E+00  4.43311886E-17  3.27467321E-01
  1.23444403E+00  1.05832404E+00 -4.22083474E+00  1.65338093E-17  1.66900186E-16
  1.13782043E-16  3.10019004E-16 -1.48788538E+00 -2.39988291E-16  1.73822925E-16
 -1.90867427E+00 -1.34557773E-16  1.61350598E-16 -4.67984958E-16  1.05806804E+00
  5.21743505E-16 -1.33571333E+00  6.03679050E-19  2.30504390E-17  4.43311886E-17
 -3.53090562E-01  0.00000000E+00  0.00000000E+00  0.00000000E+00  0.00000000E+00
 -3.38370579E+00 -2.04200990E+00 -2.66391739E+00 -2.18854891E+00 -2.13919727E+00
 -2.39988291E-16  1.95471025E-01 -1.51359072E+00 -1.34557773E-16 -7.23967566E-01
  1.09243644E+00  7.51542990E-02  1.42801106E-16 -9.01452729E-01 -4.67984958E-16
 -2.15394246E-01 -4.70407484E-01 -3.27467321E-01  0.00000000E+00 -4.72969781E-01
 -8.96110647E-01 -7.63616934E-01  6.13936557E-01  0.00000000E+00 -3.85895919E+00
Localized Alpha MO Coefficients (IBO)      R   N=         120
  1.01169861E+00 -2.51265453E-02 -3.69852077E-02  3.64319551E-16  2.38196682E-16
  5.39170543E-03  1.94134417E-15  2.48330725E-16 -7.45300167E-04 -1.00766270E-04
  1.69500823E-16  5.38645011E-18 -1.36979949E-04 -6.46496717E-17 -1.78936835E-02
 -4.97439346E-04 -3.97422118E-03  2.06813014E-16 -2.35015626E-03 -1.78936835E-02
 -4.97439346E-04  3.97422118E-03  4.25476562E-16 -2.35015626E-03  4.76041460E-02
 -2.27227717E-01 -1.19721619E-01  3.46464084E-01 -4.49294103E-16  2.27989590E-01
  1.56886025E-01 -1.20171905E-16  1.11490439E-01 -6.63065205E-03 -1.89575111E-02
 -3.09331926E-17 -3.39499704E-03 -3.47585208E-17 -4.20321143E-01 -8.30054960E-02
 -5.01563251E-02 -1.74331228E-16 -3.33784905E-02  4.35210520E-02  4.39516097E-02
  1.71759438E-02 -1.82245214E-16  1.28178150E-02 -4.76041460E-02  2.27227717E-01
  1.19721619E-01  3.46464084E-01 -3.69748673E-17 -2.27989590E-01  1.56886025E-01
  6.72227233E-17 -1.11490439E-01  6.63065205E-03 -1.89575111E-02 -5.70554540E-17
  3.39499704E-03  7.11611405E-17 -4.35210520E-02 -4.39516097E-02  1.71759438E-02
 -7.91438454E-17 -1.28178150E-02  4.20321143E-01  8.30054960E-02 -5.01563251E-02
 -1.52632822E-16  3.33784905E-02  1.12417696E-01 -3.37157167E-01 -4.83236808E-01
  1.60208704E-15 -6.75955179E-16 -4.46969148E-01  1.79542288E-15 -4.89596229E-16
 -3.29824670E-01  1.52668653E-02 -4.12453811E-16  1.98981218E-17  2.67639734E-03
  2.26387770E-17  9.35958943E-02  3.10629943E-02  1.09450815E-02  8.52587831E-17
 -1.61137713E-02  9.35958943E-02  3.10629943E-02 -1.09450815E-02 -1.52292855E-16
 -1.61137713E-02  1.46756391E-16 -4.80158241E-16 -1.18908421E-15  2.86721923E-17
  6.31170191E-01 -1.59142153E-16  3.64364578E-16  4.95655370E-01  2.98176940E-17
 -3.70556440E-17  9.90128257E-17 -1.82050733E-02 -1.76838300E-17 -1.73832600E-16
 -3.24000661E-16  6.63998602E-16 -1.16077636E-16  3.10774039E-02 -1.70588887E-16
  3.86456669E-16 -3.64658012E-16 -4.57545395E-16  3.10774039E-02  1.46010519E-16
Localized Beta  MO Coefficients (IBO)      R   N=         120
  1.01169861E+00 -2.51265453E-02 -3.69852077E-02  3.64319551E-16  2.38196682E-16
  5.39170543E-03  1.94134417E-15  2.48330725E-16 -7.45300167E-04  5.38645011E-18
 -1.36979949E-04  1.69500823E-16 -6.46496717E-17 -1.00766270E-04 -1.78936835E-02
 -4.97439346E-04 -3.97422118E-03  2.06813014E-16 -2.35015626E-03 -1.78936835E-02
 -4.97439346E-04  3.97422118E-03  4.25476562E-16 -2.35015626E-03  4.76041460E-02
 -2.27227717E-01 -1.19721619E-01  3.46464084E-01 -4.49294103E-16  2.27989590E-01
  1.56886025E-01 -1.20171905E-16  1.11490439E-01 -3.09331926E-17 -3.39499704E-03
 -1.89575111E-02 -3.47585208E-17 -6.63065205E-03 -4.20321143E-01 -8.30054960E-02
 -5.01563251E-02 -1.74331228E-16 -3.33784905E-02  4.35210520E-02  4.39516097E-02
  1.71759438E-02 -1.82245214E-16  1.28178150E-02 -4.76041460E-02  2.27227717E-01
  1.19721619E-01  3.46464084E-01 -3.69748673E-17 -2.27989590E-01  1.56886025E-01
  6.72227233E-17 -1.11490439E-01 -5.70554540E-17  3.39499704E-03 -1.89575111E-02
  7.11611405E-17  6.63065205E-03 -4.35210520E-02 -4.39516097E-02  1.71759438E-02
 -7.91438454E-17 -1.28178150E-02  4.20321143E-01  8.30054960E-02 -5.01563251E-02
 -1.52632822E-16  3.33784905E-02  1.12417696E-01 -3.37157167E-01 -4.83236808E-01
  1.60208704E-15 -6.75955179E-16 -4.46969148E-01  1.79542288E-15 -4.89596229E-16
 -3.29824670E-01  1.98981218E-17  2.67639734E-03 -4.12453811E-16  2.26387770E-17
  1.52668653E-02  9.35958943E-02  3.10629943E-02  1.09450815E-02  8.52587831E-17
 -1.61137713E-02  9.35958943E-02  3.10629943E-02 -1.09450815E-02 -1.52292855E-16
 -1.61137713E-02  1.46756391E-16 -4.80158241E-16 -1.18908421E-15  2.86721923E-17
  6.31170191E-01 -1.59142153E-16  3.64364578E-16  4.95655370E-01  2.98176940E-17
 -1.82050733E-02 -1.76838300E-17  9.90128257E-17 -1.73832600E-16 -3.70556440E-17
 -3.24000661E-16  6.63998602E-16 -1.16077636E-16  3.10774039E-02 -1.70588887E-16
  3.86456669E-16 -3.64658012E-16 -4.57545395E-16  3.10774039E-02  1.46010519E-16
Localized Alpha MO Coefficients (OSLO)     R   N=         120
 -1.00251604E+00 -3.12050163E-03  1.50245361E-02 -6.79183401E-17  4.78059272E-16
  4.85710310E-03 -1.64841899E-15  3.22656160E-16  3.19252587E-03 -1.45056583E-04
 -2.60802099E-16 -2.54088803E-17 -1.07224304E-04  6.02578612E-17  3.05600558E-03
 -5.46355216E-04  1.18818221E-03 -1.71616358E-16  1.04964803E-03  3.05600558E-03
 -5.46355216E-04 -1.18818221E-03 -3.92370009E-16  1.04964803E-03  6.70279149E-16
 -1.79520247E-16 -1.31973663E-15  5.07409711E-16  6.31170191E-01 -1.13139705E-15
  5.70794781E-16  4.95655370E-01 -5.54238881E-16 -7.29494467E-18  7.26747223E-17
 -1.82050733E-02 -7.14867239E-18 -1.73832600E-16 -1.20699016E-16  6.24982799E-16
 -4.59873671E-17  3.10774039E-02 -1.92503942E-16  1.26265973E-15 -1.91393159E-16
 -5.73127273E-16  3.10774039E-02  1.90744953E-16 -1.85506491E-01  4.58836798E-01
  4.98237253E-01 -4.49658017E-16  7.22391593E-16  1.96458096E-01 -2.11358709E-15
  4.63715361E-16  1.89157809E-01 -7.61030319E-03  9.13962393E-16 -2.69820539E-17
  4.00790283E-04  2.55961678E-17  6.86671003E-02 -1.07957094E-02  1.71393617E-02
 -4.51580186E-17  2.15427310E-02  6.86671003E-02 -1.07957094E-02 -1.71393617E-02
  1.16216326E-16  2.15427310E-02 -3.53984563E-02  8.38464370E-02 -1.22825703E-01
 -9.78894838E-16 -1.14502110E-15 -5.14926811E-01 -1.40018924E-15 -9.56833190E-16
 -3.12816616E-01  1.62197616E-02  8.26802804E-16  2.46531980E-17  5.48285931E-03
  7.75590611E-17  2.74490473E-01  4.01361960E-02  4.59046508E-02  4.35546859E-17
  3.36994468E-03  2.74490473E-01  4.01361960E-02 -4.59046508E-02 -1.34612188E-16
  3.36994468E-03  7.31882744E-16 -4.04711552E-16 -5.95184857E-16 -4.89974207E-01
  9.14087609E-16  4.64431598E-16 -2.21870344E-01  4.83999045E-16  1.33515087E-15
 -2.01055234E-16  2.68099693E-02  4.63350686E-17 -8.86062406E-17 -2.57405393E-17
  3.27985961E-01  8.97722304E-02  2.33206512E-02  2.09086104E-16  3.26657208E-02
 -3.27985961E-01 -8.97722304E-02  2.33206512E-02  2.64770976E-16 -3.26657208E-02
Localized Beta  MO Coefficients (OSLO)     R   N=         120
 -1.00251604E+00 -3.12050163E-03  1.50245361E-02 -6.79183401E-17  4.78059272E-16
  4.85710310E-03 -1.64841899E-15  3.22656160E-16  3.19252587E-03 -2.54088803E-17
 -1.07224304E-04 -2.60802099E-16  6.02578612E-17 -1.45056583E-04  3.05600558E-03
 -5.46355216E-04  1.18818221E-03 -1.71616358E-16  1.04964803E-03  3.05600558E-03
 -5.46355216E-04 -1.18818221E-03 -3.92370009E-16  1.04964803E-03  6.70279149E-16
 -1.79520247E-16 -1.31973663E-15  5.07409711E-16  6.31170191E-01 -1.13139705E-15
  5.70794781E-16  4.95655370E-01 -5.54238881E-16 -1.82050733E-02 -7.14867239E-18
  7.26747223E-17 -1.73832600E-16 -7.29494467E-18 -1.20699016E-16  6.24982799E-16
 -4.59873671E-17  3.10774039E-02 -1.92503942E-16  1.26265973E-15 -1.91393159E-16
 -5.73127273E-16  3.10774039E-02  1.90744953E-16 -1.85506491E-01  4.58836798E-01
  4.98237253E-01 -4.49658017E-16  7.22391593E-16  1.96458096E-01 -2.11358709E-15
  4.63715361E-16  1.89157809E-01 -2.69820539E-17  4.00790283E-04  9.13962393E-16
  2.55961678E-17 -7.61030319E-03  6.86671003E-02 -1.07957094E-02  1.71393617E-02
 -4.51580186E-17  2.15427310E-02  6.86671003E-02 -1.07957094E-02 -1.71393617E-02
  1.16216326E-16  2.15427310E-02 -3.53984563E-02  8.38464370E-02 -1.22825703E-01
 -9.78894838E-16 -1.14502110E-15 -5.14926811E-01 -1.40018924E-15 -9.56833190E-16
 -3.12816616E-01  2.46531980E-17  5.48285931E-03  8.26802804E-16  7.75590611E-17
  1.62197616E-02  2.74490473E-01  4.01361960E-02  4.59046508E-02  4.35546859E-17
  3.36994468E-03  2.74490473E-01  4.01361960E-02 -4.59046508E-02 -1.34612188E-16
  3.36994468E-03  7.31882744E-16 -4.04711552E-16 -5.95184857E-16 -4.89974207E-01
  9.14087609E-16  4.64431598E-16 -2.21870344E-01  4.83999045E-16  1.33515087E-15
  4.63350686E-17 -8.86062406E-17  2.68099693E-02 -2.57405393E-17 -2.01055234E-16
  3.27985961E-01  8.97722304E-02  2.33206512E-02  2.09086104E-16  3.26657208E-02
 -3.27985961E-01 -8.97722304E-02  2.33206512E-02  2.64770976E-16 -3.26657208E-02
Number of independent functions            I               24
Alpha MO coefficients                      R   N=         576
 -1.00251604E+00 -3.12050163E-03  1.50245361E-02 -6.79183401E-17  4.78059272E-16
  4.85710310E-03 -1.64841899E-15  3.22656160E-16  3.19252587E-03 -1.45056583E-04
 -2.60802099E-16 -2.54088803E-17 -1.07224304E-04  6.02578612E-17  3.05600558E-03
 -5.46355216E-04  1.18818221E-03 -1.71616358E-16  1.04964803E-03  3.05600558E-03
 -5.46355216E-04 -1.18818221E-03 -3.92370009E-16  1.04964803E-03  6.70279149E-16
 -1.79520247E-16 -1.31973663E-15  5.07409711E-16  6.31170191E-01 -1.13139705E-15
  5.70794781E-16  4.95655370E-01 -5.54238881E-16 -7.29494467E-18  7.26747223E-17
 -1.82050733E-02 -7.14867239E-18 -1.73832600E-16 -1.20699016E-16  6.24982799E-16
 -4.59873671E-17  3.10774039E-02 -1.92503942E-16  1.26265973E-15 -1.91393159E-16
 -5.73127273E-16  3.10774039E-02  1.90744953E-16 -1.85506491E-01  4.58836798E-01
  4.98237253E-01 -4.49658017E-16  7.22391593E-16  1.96458096E-01 -2.11358709E-15
  4.63715361E-16  1.89157809E-01 -7.61030319E-03  9.13962393E-16 -2.69820539E-17
  4.00790283E-04  2.55961678E-17  6.86671003E-02 -1.07957094E-02  1.71393617E-02
 -4.51580186E-17  2.15427310E-02  6.86671003E-02 -1.07957094E-02 -1.71393617E-02
  1.16216326E-16  2.15427310E-02 -3.53984563E-02  8.38464370E-02 -1.22825703E-01
 -9.78894838E-16 -1.14502110E-15 -5.14926811E-01 -1.40018924E-15 -9.56833190E-16
 -3.12816616E-01  1.62197616E-02  8.26802804E-16  2.46531980E-17  5.48285931E-03
  7.75590611E-17  2.74490473E-01  4.01361960E-02  4.59046508E-02  4.35546859E-17
  3.36994468E-03  2.74490473E-01  4.01361960E-02 -4.59046508E-02 -1.34612188E-16
  3.36994468E-03  7.31882744E-16 -4.04711552E-16 -5.95184857E-16 -4.89974207E-01
  9.14087609E-16  4.64431598E-16 -2.21870344E-01  4.83999045E-16  1.33515087E-15
 -2.01055234E-16  2.68099693E-02  4.63350686E-17 -8.86062406E-17 -2.57405393E-17
  3.27985961E-01  8.97722304E-02  2.33206512E-02  2.09086104E-16  3.26657208E-02
 -3.27985961E-01 -8.97722304E-02  2.33206512E-02  2.64770976E-16 -3.26657208E-02
  8.39347735E-02 -7.16535904E-02 -1.00273715E+00  1.49877265E-15  5.86035856E-17
  1.90501883E-01  3.25668149E-15  5.36064180E-17  3.36964585E-01 -7.52575034E-03
 -9.48493301E-18  1.51678491E-17 -9.98748950E-03  1.23551985E-16  5.89510396E-02
  8.29300603E-01  1.75642177E-02 -2.17009414E-16  1.63304509E-02  5.89510396E-02
  8.29300603E-01 -1.75642177E-02  7.43348962E-17  1.63304509E-02 -4.55081309E-16
  6.67580808E-17  5.61512504E-15  2.83167869E-01  2.82137808E-16 -7.72150305E-16
  6.71000036E-01  1.95164724E-16 -2.13146072E-15  1.41233183E-16 -2.12632730E-02
 -5.23382330E-17  7.38178241E-16  2.09877680E-16  2.59453521E-02  1.44438920E+00
  2.08383069E-02 -1.47368679E-16  1.71655950E-02 -2.59453521E-02 -1.44438920E+00
  2.08383069E-02 -9.30989682E-18 -1.71655950E-02  6.82538709E-16 -8.66819426E-16
 -2.22523273E-15  2.67948300E-01 -2.46004115E-16  3.33839897E-15  4.61285183E-01
  4.51473831E-16  4.39243951E-15 -5.19480623E-18  1.11730249E-01  4.89270459E-17
  2.64966353E-17 -7.53392831E-17  9.44354190E-01 -6.86066045E-01 -7.39992570E-02
 -4.08160185E-16 -1.52932730E-01 -9.44354190E-01  6.86066045E-01 -7.39992570E-02
 -1.37299651E-16  1.52932730E-01  4.79846868E-02 -2.55954375E-01  3.19724406E-01
 -9.66934825E-16 -6.08554835E-16  3.29200925E-01 -2.32712551E-15  7.30225496E-16
 -9.72948255E-03  9.30992252E-04 -1.51966210E-15  2.67667076E-17  1.07057935E-01
 -1.13313743E-16  7.87475144E-01 -5.47685114E-01 -2.96097460E-01  4.20964075E-16
 -5.91789248E-02  7.87475144E-01 -5.47685114E-01  2.96097460E-01 -6.70242623E-16
 -5.91789248E-02 -4.74819130E-02  1.14406454E-01  7.49298946E-01  1.64336915E-15
 -1.18521675E-15  7.54459301E-01 -7.75242699E-15  1.36172252E-15 -1.27925598E+00
  1.27509669E-02 -2.50578573E-16 -6.86180237E-17 -6.67118694E-03 -1.65996718E-16
 -5.46910156E-01 -1.13125834E-01 -8.44957203E-02 -9.39516631E-16 -2.50716319E-01
 -5.46910156E-01 -1.13125834E-01  8.44957203E-02  8.43776875E-16 -2.50716319E-01
 -2.96528318E-17  4.04401715E-17  1.04926976E-15  1.45695279E-15  9.67823790E-01
  1.04072905E-15 -3.23204051E-15 -1.02521811E+00 -1.02977795E-15 -5.95576261E-18
  2.50408936E-16 -3.52289741E-03 -2.91303377E-16 -2.91316011E-16 -2.00273574E-16
 -2.35570266E-15 -4.00158219E-16 -8.10504603E-03 -1.22439322E-15  6.54397101E-16
  1.07475364E-15 -1.51337801E-16 -8.10504603E-03 -8.13564949E-17 -1.71410249E-16
  1.60387962E-15 -6.53907368E-16  7.34052476E-01 -2.29577243E-15 -3.24832134E-15
 -1.76432458E+00  3.47842132E-16 -2.56908957E-15 -1.11140345E-15  4.46144702E-02
 -2.87612641E-16 -2.03031486E-16  2.69329600E-17 -3.79478272E-01 -8.25486873E-01
 -3.02708966E-01  1.82832975E-15 -1.86702191E-01  3.79478272E-01  8.25486873E-01
 -3.02708966E-01  9.96474706E-16  1.86702191E-01 -3.21964839E-02  5.30571151E-01
 -5.07248844E-01 -6.12987774E-15  5.02740729E-16  1.32215432E-01  1.43564860E-14
 -9.71672514E-16 -7.39547570E-01 -1.17198993E-01  4.56538440E-16  1.29055862E-16
  4.65102183E-03 -1.17048521E-15 -3.33119515E-01  2.09646020E-01 -3.29141453E-01
  6.40943922E-15  5.45703195E-01 -3.33119515E-01  2.09646020E-01  3.29141453E-01
 -5.81274016E-15  5.45703195E-01 -2.29315773E-16  1.18981178E-15 -4.21245496E-16
 -3.02807756E-16 -5.02546843E-16  9.78631955E-16 -7.81357910E-16  5.70072035E-15
 -6.29252553E-15 -1.31674782E-15  1.74356096E-16  1.82468459E-15  3.68693097E-16
  1.31261158E-01 -3.12484105E-15 -3.52641874E-16 -4.22921857E-15 -6.85609123E-01
  5.67852099E-15 -2.30357779E-15  2.06148989E-15  2.23231157E-15  6.85609123E-01
  5.24796784E-15  4.67768535E-17  4.74021684E-15 -1.10377697E-14 -1.19113412E-15
 -2.02850091E-02  9.47586696E-16  3.32174457E-16 -6.33626950E-01  3.62249928E-15
  6.04261444E-16  1.16473688E-16 -1.60774304E-01  3.56255975E-16  1.08641203E-15
  3.40178322E-15  2.72307413E-15  4.98857996E-15  7.67114555E-01 -2.87382431E-15
  3.78392909E-15 -5.43971783E-17  9.56753168E-16  7.67114555E-01  2.98995125E-15
 -1.91588282E-02 -1.59822742E+00  3.03486336E+00 -5.24571612E-15 -1.79921919E-16
 -1.10104915E-01  1.25000598E-14 -2.29489952E-15 -9.67831230E-01 -1.14156964E-01
  1.89224666E-15 -1.40873543E-15 -1.08131877E-01 -3.03796667E-17 -8.28727090E-01
 -3.88056785E-01 -3.73106315E-01  4.14662477E-15  2.34442605E-02 -8.28727090E-01
 -3.88056785E-01  3.73106315E-01  1.10353618E-15  2.34442605E-02 -5.77602181E-17
  2.45683811E-14 -3.74412159E-14 -1.03601747E-02  6.47886271E-16 -6.74710948E-16
  9.01763091E-01 -3.85801068E-15  9.93256714E-15  1.12274405E-15  2.93894502E-02
 -1.42284563E-15  1.06472528E-15 -1.29981802E-16  3.87828322E-01  9.15602620E-02
 -4.71953397E-01  4.99432577E-15  6.93136037E-01 -3.87828322E-01 -9.15602620E-02
 -4.71953397E-01  3.11725930E-15 -6.93136037E-01  1.56899585E-16  6.33397752E-15
 -1.01525800E-14 -8.39405412E-01  4.25007024E-16 -5.27099029E-16 -1.52740900E-01
 -7.69151741E-16  4.85177704E-15  1.12292660E-15 -1.38649008E-01 -1.08854265E-15
  1.94644722E-15  4.25816299E-16 -2.95624596E-01 -3.29984034E-01 -7.24406379E-01
  9.83096095E-16 -5.55180236E-01  2.95624596E-01  3.29984034E-01 -7.24406379E-01
 -4.69064824E-16  5.55180236E-01 -4.42603841E-02  7.31171506E-01  7.92621035E-01
 -1.07908771E-15 -3.36846270E-16 -6.69436648E-01 -1.92381826E-15 -1.10834451E-16
 -1.79742366E-01 -5.31718062E-02 -9.11854612E-16  5.73960220E-16 -2.17540473E-01
  4.30820617E-16 -4.78848263E-01 -1.58789553E-01 -7.44653305E-01  2.90992805E-16
 -5.36820041E-01 -4.78848263E-01 -1.58789553E-01  7.44653305E-01  1.35871078E-15
 -5.36820041E-01  3.82323851E-17  3.55457240E-15 -5.36807802E-15  1.00174388E-15
 -1.14492966E-02 -4.61155231E-16 -5.55385470E-16  3.11717496E-01  2.19449255E-15
 -9.58735314E-16 -3.08300038E-16 -1.04281699E+00 -3.82020657E-16  4.46029121E-14
  1.33438345E-15  1.52344493E-15  1.37530294E-15 -3.98435086E-01 -4.79894877E-16
  1.57526570E-15 -1.75503818E-16  1.03890994E-15 -3.98435086E-01 -5.59160294E-16
  1.34727562E-16  1.64129804E-15 -7.06966898E-15  7.37508260E-16  1.32697552E-15
  1.42283978E-15  9.44155543E-16 -1.41802380E-14  3.28754276E-15 -4.84243151E-15
 -7.66541249E-16  4.35060906E-14 -1.44733942E-16  1.06626300E+00  4.28437885E-15
  9.70874029E-16  3.92523738E-15  3.71538737E-01  4.29766192E-17  2.37519994E-15
  1.23375260E-17 -2.04167138E-15 -3.71538737E-01 -1.10258988E-15  1.59646554E-02
  1.54961549E-01 -5.60815593E-01  9.20008724E-16 -6.59522256E-17  1.97311431E-02
  2.17383323E-15 -3.30488112E-16  5.38968441E-01 -1.08473904E+00 -3.00209450E-15
  8.84029222E-16  1.74672850E-01 -5.03689522E-15  3.07672459E-01  3.80889908E-02