Jobname.Temp
SP        R                             cc-pVDZ             
Number of atoms                            I                3
Charge                                     I                0
Multiplicity                               I                1
Number of electrons                        I               10
Number of alpha electrons                  I                5
Number of beta electrons                   I                5
Atomic numbers                             I   N=           3
           8           1           1
Current cartesian coordinates              R   N=           9
  1.03842175E-32  2.71229754E-17  2.21475902E-01 -1.43052268E+00  4.39193533E-16
 -8.85903607E-01  1.43052268E+00 -6.56177336E-16 -8.85903607E-01
Nuclear charges                            R   N=           3
  8.00000000E+00  1.00000000E+00  1.00000000E+00
Number of basis functions                  I               24
Number of contracted shells                I               12
Number of primitive shells                 I               30
Highest angular momentum                   I                2
Largest degree of contraction              I                7
Shell types                                I   N=          12
           0           0           0           1           1          -2
           0           0           1           0           0           1
Number of primitives per shell             I   N=          12
           7           7           1           3           1           1
           3           1           1           3           1           1
Shell to atom map                          I   N=          12
           1           1           1           1           1           1
           2           2           2           3           3           3
Primitive exponents                        R   N=          30
  1.17200000E+04  1.75900000E+03  4.00800000E+02  1.13700000E+02  3.70300000E+01
  1.32700000E+01  5.02500000E+00  1.17200000E+04  1.75900000E+03  1.13700000E+02
  3.70300000E+01  1.32700000E+01  5.02500000E+00  1.01300000E+00  3.02300000E-01
  1.77000000E+01  3.85400000E+00  1.04600000E+00  2.75300000E-01  1.18500000E+00
  1.30100000E+01  1.96200000E+00  4.44600000E-01  1.22000000E-01  7.27000000E-01
  1.30100000E+01  1.96200000E+00  4.44600000E-01  1.22000000E-01  7.27000000E-01
Contraction coefficients                   R   N=          30
  7.11859989E-04  5.48520206E-03  2.79099247E-02  1.05133208E-01  2.84002488E-01
  4.51673950E-01  2.73208124E-01 -3.13436252E-07 -6.17665315E-05 -4.15726173E-03
 -1.41000865E-02 -1.26138482E-01 -1.09614593E-01  1.09868833E+00  1.00000000E+00
  6.26791663E-02  3.33536566E-01  7.41239642E-01  1.00000000E+00  1.00000000E+00
  3.34987264E-02  2.34800801E-01  8.13682958E-01  1.00000000E+00  1.00000000E+00
  3.34987264E-02  2.34800801E-01  8.13682958E-01  1.00000000E+00  1.00000000E+00
Coordinates of each shell                  R   N=          36
  1.03842175E-32  2.71229754E-17  2.21475902E-01  1.03842175E-32  2.71229754E-17
  2.21475902E-01  1.03842175E-32  2.71229754E-17  2.21475902E-01  1.03842175E-32
  2.71229754E-17  2.21475902E-01  1.03842175E-32  2.71229754E-17  2.21475902E-01
  1.03842175E-32  2.71229754E-17  2.21475902E-01 -1.43052268E+00  4.39193533E-16
 -8.85903607E-01 -1.43052268E+00  4.39193533E-16 -8.85903607E-01 -1.43052268E+00
  4.39193533E-16 -8.85903607E-01  1.43052268E+00 -6.56177336E-16 -8.85903607E-01
  1.43052268E+00 -6.56177336E-16 -8.85903607E-01  1.43052268E+00 -6.56177336E-16
 -8.85903607E-01
Overlap Matrix                             R   N=         300
  1.00000000E+00  2.14476014E-01  1.00000000E+00  1.83816867E-01  7.92109402E-01
  1.00000000E+00  5.72204388E-49 -9.87718776E-49  9.40225641E-50  1.00000000E+00
 -2.67842048E-33 -4.42830221E-33  1.51055599E-33  1.24233395E-80  1.00000000E+00
 -5.23322702E-18 -1.71320900E-17 -3.20588013E-17  1.11899494E-64  2.75765037E-49
  1.00000000E+00  2.08600014E-49 -7.35140560E-50 -1.43367686E-48  5.01271483E-01
  1.96464908E-80  8.59212292E-65  1.00000000E+00  2.29431890E-34 -2.69880348E-33
  0.00000000E+00  1.96464908E-80  5.01271483E-01  1.99239087E-49  0.00000000E+00
  1.00000000E+00  5.19780141E-18 -2.56674106E-17  0.00000000E+00  8.59212292E-65
  1.99239087E-49  5.01271483E-01  4.18260768E-65  0.00000000E+00  1.00000000E+00
  0.00000000E+00  0.00000000E+00  0.00000000E+00 -1.64898832E-48 -3.67341667E-33
  6.61743918E-17  0.00000000E+00  2.09635337E-33  0.00000000E+00  1.00000000E+00
  3.42806564E-65 -1.37492878E-65  0.00000000E+00  5.73087044E-17  1.40624608E-96
  2.85613155E-48  0.00000000E+00  0.00000000E+00  0.00000000E+00  0.00000000E+00
  1.00000000E+00  1.35107115E-49 -6.09069546E-50  0.00000000E+00  1.40624608E-96
  5.73087044E-17  6.36254431E-33  0.00000000E+00  0.00000000E+00 -3.63099054E-33
  0.00000000E+00  0.00000000E+00  1.00000000E+00  2.95546284E-18  3.53361838E-17
  4.56638999E-17  2.85613155E-48 -6.36254431E-33 -2.02388945E-34  0.00000000E+00
  3.63099054E-33  0.00000000E+00  2.47902802E-17  0.00000000E+00  0.00000000E+00
  1.00000000E+00  7.60924399E-81  1.88067298E-80  0.00000000E+00  6.36254431E-33
  2.85613155E-48  1.40624608E-96 -3.63099054E-33  0.00000000E+00  0.00000000E+00
  0.00000000E+00  0.00000000E+00  0.00000000E+00  0.00000000E+00  1.00000000E+00
  4.98679859E-02  2.99384280E-01  4.97159078E-01 -2.23067620E-01  6.42559534E-17
 -1.72678501E-01 -4.92173086E-01  1.41773382E-16 -3.80995282E-01  1.43207900E-02
  1.93475696E-01 -5.57318238E-17  1.24966810E-01 -7.19948645E-17  1.00000000E+00
  6.49317012E-02  3.55190441E-01  6.48025774E-01 -8.39416192E-02  2.41798822E-17
 -6.49799060E-02 -3.09747228E-01  8.92245296E-17 -2.39777907E-01  1.49642491E-03
  2.02168909E-02 -5.82359556E-18  1.30581795E-02 -7.52297242E-18  6.84860251E-01
  1.00000000E+00  8.30132485E-02  3.57190082E-01  3.09690076E-01 -1.64078287E-01
  1.03710481E-16 -2.78706789E-01  7.15761141E-02  9.22111153E-17 -2.47803921E-01
  1.71940595E-01  1.64491748E-01 -1.03516993E-16 -1.96230305E-02 -6.12095543E-17
  2.98375835E-16  2.22505918E-16  1.00000000E+00 -2.39124595E-17 -1.02890725E-16
 -8.92080665E-17  1.03710481E-16  1.95957615E-01  8.02831465E-17  9.22111153E-17
  3.91691418E-01  7.13813918E-17 -4.95285102E-17 -1.03516993E-16 -1.94872450E-01
 -1.39376700E-16 -2.51737961E-01 -6.62527444E-32 -9.88124772E-32  0.00000000E+00
  1.00000000E+00  6.42612466E-02  2.76503815E-01  2.39733665E-01 -2.78706789E-01
  8.02831465E-17 -1.97916293E-02 -2.47803921E-01  7.13813918E-17  1.99864340E-01
 -2.04428339E-01  2.64488560E-02 -7.61875013E-18  1.79682099E-01 -1.03516993E-16
  1.49187918E-16  1.11252959E-16  0.00000000E+00  0.00000000E+00  1.00000000E+00
  4.98679859E-02  2.99384280E-01  4.97159078E-01  2.23067620E-01 -1.06549988E-16
 -1.72678501E-01  4.92173086E-01 -2.35090312E-16 -3.80995282E-01  1.43207900E-02
 -1.93475696E-01  9.24151748E-17  1.24966810E-01 -1.19382743E-16  1.21119987E-01
  3.07571853E-01  1.59833745E-01 -6.11934472E-17  1.54030844E-17  1.00000000E+00
  6.49317012E-02  3.55190441E-01  6.48025774E-01  8.39416192E-02 -4.00953690E-17
 -6.49799060E-02  3.09747228E-01 -1.47953179E-16 -2.39777907E-01  1.49642491E-03
 -2.02168909E-02  9.65675560E-18  1.30581795E-02 -1.24746826E-17  3.07571853E-01
  6.06942991E-01  1.75184894E-01 -6.70707400E-17  4.73075003E-17  6.84860251E-01
  1.00000000E+00 -8.30132485E-02 -3.57190082E-01 -3.09690076E-01 -1.64078287E-01
  1.71973956E-16  2.78706789E-01  7.15761141E-02  1.52905571E-16  2.47803921E-01
 -1.71940595E-01  1.64491748E-01 -1.71653112E-16  1.96230305E-02  1.01498413E-16
 -1.59833745E-01 -1.75184894E-01 -2.52615755E-01  1.16250579E-16  2.35653646E-17
 -2.98375835E-16 -2.22505918E-16  1.00000000E+00  3.96519255E-17  1.70614628E-16
  1.47925880E-16  1.71973956E-16  1.95957615E-01 -1.33126471E-16  1.52905571E-16
  3.91691418E-01 -1.18365475E-16  8.21287662E-17 -1.71653112E-16 -1.94872450E-01
  2.31116106E-16  2.51737961E-01  6.11934472E-17  6.70707400E-17  1.16250579E-16
  5.10240333E-02 -9.02216173E-33  1.68772572E-33  0.00000000E+00  0.00000000E+00
  1.00000000E+00  6.42612466E-02  2.76503815E-01  2.39733665E-01  2.78706789E-01
 -1.33126471E-16 -1.97916293E-02  2.47803921E-01 -1.18365475E-16  1.99864340E-01
 -2.04428339E-01 -2.64488560E-02  1.26335023E-17  1.79682099E-01 -1.71653112E-16
  1.54030844E-17  4.73075003E-17 -2.35653646E-17  9.02216173E-33  5.10240333E-02
  1.49187918E-16  1.11252959E-16  0.00000000E+00  0.00000000E+00  1.00000000E+00
Core Hamiltonian Matrix                    R   N=         300
 -3.30445786E+01 -6.61318363E+00 -9.72114592E+00 -5.84006963E+00 -7.64461384E+00
 -7.61956807E+00  0.00000000E+00  0.00000000E+00  0.00000000E+00 -8.56253773E+00
  0.00000000E+00  0.00000000E+00  0.00000000E+00  0.00000000E+00 -8.45620600E+00
  2.81555813E-02  1.83452696E-01  1.77925761E-01  0.00000000E+00  0.00000000E+00
 -8.51992462E+00  0.00000000E+00  0.00000000E+00  0.00000000E+00 -3.84860424E+00
  0.00000000E+00  0.00000000E+00 -4.83239854E+00  0.00000000E+00  0.00000000E+00
  0.00000000E+00  0.00000000E+00 -3.75147734E+00  0.00000000E+00  0.00000000E+00
 -4.60666380E+00  4.08416140E-03  1.18069107E-01  2.42181267E-01  0.00000000E+00
  0.00000000E+00 -3.80968002E+00  0.00000000E+00  0.00000000E+00 -4.74193392E+00
 -2.51912485E-04 -9.51432019E-03 -1.28774087E-02  0.00000000E+00  0.00000000E+00
  1.47617700E-01  0.00000000E+00  0.00000000E+00  1.27132332E-01 -4.34434678E+00
  0.00000000E+00  0.00000000E+00  0.00000000E+00  2.11466842E-01  0.00000000E+00
  0.00000000E+00  2.20588336E-01  0.00000000E+00  0.00000000E+00  0.00000000E+00
 -4.49039167E+00  0.00000000E+00  0.00000000E+00  0.00000000E+00  0.00000000E+00
  1.23474327E-01  0.00000000E+00  0.00000000E+00  1.04330921E-01  0.00000000E+00
  0.00000000E+00  0.00000000E+00 -4.29538787E+00 -2.19825161E-03 -8.30243474E-02
 -1.12371502E-01  0.00000000E+00  0.00000000E+00  4.39962574E-02  0.00000000E+00
  0.00000000E+00  5.81287072E-02  4.74228405E-02  0.00000000E+00  0.00000000E+00
 -4.37525008E+00  0.00000000E+00  0.00000000E+00  0.00000000E+00  0.00000000E+00
  0.00000000E+00  0.00000000E+00  0.00000000E+00  0.00000000E+00  0.00000000E+00
  0.00000000E+00  0.00000000E+00  0.00000000E+00  0.00000000E+00 -4.33176456E+00
 -1.58762921E+00 -2.85193894E+00 -3.46624887E+00  1.76308837E+00  5.02855838E-17
  1.40666693E+00  2.52639309E+00  9.74307295E-17  2.01006131E+00 -1.17859045E-01
 -1.21551483E+00 -8.71191613E-17 -7.85481906E-01 -1.12541306E-16 -5.13361961E+00
 -2.06497303E+00 -3.36369986E+00 -4.21955620E+00  6.53955674E-01  1.13946118E-17
  5.85631681E-01  1.34055236E+00  3.35403020E-17  1.19121764E+00 -3.24499550E-02
 -1.63549359E-01 -4.04275056E-18 -1.47327175E-01 -5.22246105E-18 -3.57067941E+00
 -4.21775874E+00 -2.63950942E+00 -3.47981697E+00 -2.89538955E+00  1.28717469E+00
  1.86959821E-16  2.20702081E+00  7.95117322E-02  1.04825519E-16  1.59378974E+00
 -9.58860726E-01 -7.75466399E-01 -2.82222647E-16  1.62704085E-01 -2.32224344E-16
 -1.23444403E+00 -1.05832404E+00 -4.22083474E+00 -9.97086622E-18 -1.00650697E-16
 -6.86173111E-17  1.86959821E-16 -1.48788538E+00  1.44727153E-16  1.04825519E-16
 -1.90867427E+00  8.11463064E-17 -9.73039671E-17 -2.82222647E-16  1.05806804E+00
 -3.14642234E-16  1.33571333E+00  0.00000000E+00  0.00000000E+00  0.00000000E+00
 -3.38370579E+00 -2.04200990E+00 -2.66391739E+00 -2.18854891E+00  2.13919727E+00
  1.44727153E-16  1.95471025E-01  1.51359072E+00  8.11463064E-17 -7.23967566E-01
  1.09243644E+00 -7.51542990E-02 -8.61175246E-17 -9.01452729E-01 -2.82222647E-16
 -8.96110647E-01 -7.63616934E-01 -6.13936557E-01  0.00000000E+00 -3.85895919E+00
 -1.58762921E+00 -2.85193894E+00 -3.46624887E+00 -1.76308837E+00 -8.33841547E-17
  1.40666693E+00 -2.52639309E+00 -1.61560797E-16  2.01006131E+00 -1.17859045E-01
  1.21551483E+00  1.44462032E-16 -7.85481906E-01 -1.86617335E-16 -9.42223933E-01
 -1.88772423E+00 -1.29470776E+00 -6.03679050E-19 -2.15394246E-01 -5.13361961E+00
 -2.06497303E+00 -3.36369986E+00 -4.21955620E+00 -6.53955674E-01 -1.88946812E-17
  5.85631681E-01 -1.34055236E+00 -5.56169287E-17  1.19121764E+00 -3.24499550E-02
  1.63549359E-01  6.70373719E-18 -1.47327175E-01 -8.65994719E-18 -1.88772423E+00
 -2.96397208E+00 -1.48809338E+00 -2.30504390E-17 -4.70407484E-01 -3.57067941E+00
 -4.21775874E+00  2.63950942E+00  3.47981697E+00  2.89538955E+00  1.28717469E+00
  3.10019004E-16 -2.20702081E+00  7.95117322E-02  1.73822925E-16 -1.59378974E+00
  9.58860726E-01 -7.75466399E-01 -4.67984958E-16 -1.62704085E-01  3.85077177E-16
  1.29470776E+00  1.48809338E+00  1.98882625E+00  4.43311886E-17  3.27467321E-01
  1.23444403E+00  1.05832404E+00 -4.22083474E+00  1.65338093E-17  1.66900186E-16
  1.13782043E-16  3.10019004E-16 -1.48788538E+00 -2.39988291E-16  1.73822925E-16
 -1.90867427E+00 -1.34557773E-16  1.61350598E-16 -4.67984958E-16  1.05806804E+00
  5.21743505E-16 -1.33571333E+00  6.03679050E-19  2.30504390E-17  4.43311886E-17
 -3.53090562E-01  0.00000000E+00  0.00000000E+00  0.00000000E+00  0.00000000E+00
 -3.38370579E+00 -2.04200990E+00 -2.66391739E+00 -2.18854891E+00 -2.13919727E+00
 -2.39988291E-16  1.95471025E-01 -1.51359072E+00 -1.34557773E-16 -7.23967566E-01
  1.09243644E+00  7.51542990E-02  1.42801106E-16 -9.01452729E-01 -4.67984958E-16
 -2.15394246E-01 -4.70407484E-01 -3.27467321E-01  0.00000000E+00 -4.72969781E-01
 -8.96110647E-01 -7.63616934E-01  6.13936557E-01  0.00000000E+00 -3.85895919E+00
Localized Alpha MO Coefficients (IBO)      R   N=         120
  1.01169857E+00 -2.51263056E-02 -3.69851882E-02 -1.17191817E-15  2.33513233E-16
  5.39176063E-03  6.44355955E-16  2.24068444E-16 -7.45231986E-04 -1.00753625E-04
  6.15893816E-16  1.70050241E-17 -1.36984890E-04 -7.72044257E-17 -1.78938384E-02
 -4.97382930E-04 -3.97423717E-03  2.10410802E-16 -2.35018767E-03 -1.78938384E-02
 -4.97382930E-04  3.97423717E-03  5.53323900E-16 -2.35018767E-03  4.76053714E-02
 -2.27230762E-01 -1.19728885E-01  3.46461275E-01 -4.80574261E-16  2.27987118E-01
  1.56887015E-01 -1.29537330E-16  1.11487981E-01 -6.63062947E-03 -1.89572723E-02
 -3.73679545E-17 -3.39475687E-03 -2.86728312E-17 -4.20319736E-01 -8.30053987E-02
 -5.01560726E-02 -2.73024862E-16 -3.33787032E-02  4.35227736E-02  4.39562567E-02
  1.71763602E-02 -6.43054632E-17  1.28177755E-02  4.76053714E-02 -2.27230762E-01
 -1.19728885E-01 -3.46461275E-01 -9.37859997E-18  2.27987118E-01 -1.56887015E-01
 -9.59663842E-17  1.11487981E-01 -6.63062947E-03  1.89572723E-02  6.04784385E-17
 -3.39475687E-03 -7.04007189E-17  4.35227736E-02  4.39562567E-02 -1.71763602E-02
  1.31731480E-16  1.28177755E-02 -4.20319736E-01 -8.30053987E-02  5.01560726E-02
  2.16767670E-16 -3.33787032E-02  1.12416195E-01 -3.37150427E-01 -4.83228209E-01
  3.23642872E-16 -8.93390463E-16 -4.46977312E-01 -8.66161250E-16 -6.48078133E-16
 -3.29828357E-01  1.52670980E-02  4.08905694E-16  4.39405367E-17  2.67590127E-03
  3.25758786E-17  9.35949885E-02  3.10591128E-02  1.09463852E-02  1.37161240E-16
 -1.61141797E-02  9.35949885E-02  3.10591128E-02 -1.09463852E-02 -3.12783956E-16
 -1.61141797E-02  1.41006960E-16 -5.14550490E-16 -1.32798183E-15  2.57404511E-16
  6.31170257E-01 -3.72182820E-16 -1.57356560E-16  4.95654764E-01 -1.58522648E-16
  1.08833476E-17  1.47767771E-16 -1.82051212E-02 -4.56301927E-17 -2.03004189E-17
 -3.47970174E-16  3.42955693E-16 -2.27020319E-16  3.10780359E-02 -2.13479708E-16
  6.63336846E-16 -3.43201367E-16 -4.29842137E-16  3.10780359E-02  2.01157782E-16
Localized Beta  MO Coefficients (IBO)      R   N=         120
  1.01169857E+00 -2.51263056E-02 -3.69851882E-02 -1.17191817E-15  2.33513233E-16
  5.39176063E-03  6.44355955E-16  2.24068444E-16 -7.45231986E-04  1.70050241E-17
 -1.36984890E-04  6.15893816E-16 -7.72044257E-17 -1.00753625E-04 -1.78938384E-02
 -4.97382930E-04 -3.97423717E-03  2.10410802E-16 -2.35018767E-03 -1.78938384E-02
 -4.97382930E-04  3.97423717E-03  5.53323900E-16 -2.35018767E-03  4.76053714E-02
 -2.27230762E-01 -1.19728885E-01  3.46461275E-01 -4.80574261E-16  2.27987118E-01
  1.56887015E-01 -1.29537330E-16  1.11487981E-01 -3.73679545E-17 -3.39475687E-03
 -1.89572723E-02 -2.86728312E-17 -6.63062947E-03 -4.20319736E-01 -8.30053987E-02
 -5.01560726E-02 -2.73024862E-16 -3.33787032E-02  4.35227736E-02  4.39562567E-02
  1.71763602E-02 -6.43054632E-17  1.28177755E-02  4.76053714E-02 -2.27230762E-01
 -1.19728885E-01 -3.46461275E-01 -9.37859997E-18  2.27987118E-01 -1.56887015E-01
 -9.59663842E-17  1.11487981E-01  6.04784385E-17 -3.39475687E-03  1.89572723E-02
 -7.04007189E-17 -6.63062947E-03  4.35227736E-02  4.39562567E-02 -1.71763602E-02
  1.31731480E-16  1.28177755E-02 -4.20319736E-01 -8.30053987E-02  5.01560726E-02
  2.16767670E-16 -3.33787032E-02  1.12416195E-01 -3.37150427E-01 -4.83228209E-01
  3.23642872E-16 -8.93390463E-16 -4.46977312E-01 -8.66161250E-16 -6.48078133E-16
 -3.29828357E-01  4.39405367E-17  2.67590127E-03  4.08905694E-16  3.25758786E-17
  1.52670980E-02  9.35949885E-02  3.10591128E-02  1.09463852E-02  1.37161240E-16
 -1.61141797E-02  9.35949885E-02  3.10591128E-02 -1.09463852E-02 -3.12783956E-16
 -1.61141797E-02  1.41006960E-16 -5.14550490E-16 -1.32798183E-15  2.57404511E-16
  6.31170257E-01 -3.72182820E-16 -1.57356560E-16  4.95654764E-01 -1.58522648E-16
 -1.82051212E-02 -4.56301927E-17  1.47767771E-16 -2.03004189E-17  1.08833476E-17
 -3.47970174E-16  3.42955693E-16 -2.27020319E-16  3.10780359E-02 -2.13479708E-16
  6.63336846E-16 -3.43201367E-16 -4.29842137E-16  3.10780359E-02  2.01157782E-16
Localized Alpha MO Coefficients (OSLO)     R   N=         120
 -1.00251599E+00 -3.12071525E-03  1.50243918E-02  6.12997587E-16  5.24468555E-16
  4.85714855E-03 -8.74194006E-16  3.79381168E-16  3.19249455E-03 -1.45078561E-04
 -5.94302915E-16 -3.79763756E-17 -1.07213450E-04  7.33201209E-17  3.05608823E-03
 -5.46325018E-04  1.18819131E-03 -1.73748910E-16  1.04966588E-03  3.05608823E-03
 -5.46325018E-04 -1.18819131E-03 -5.13009213E-16  1.04966588E-03  5.99556038E-16
 -1.67766434E-16 -1.39711752E-15  8.87260474E-16  6.31170257E-01 -1.32053925E-15
  1.28382465E-16  4.95654764E-01 -6.97454517E-16  4.06508060E-17  1.11491203E-16
 -1.82051212E-02 -3.43135210E-17 -2.03004189E-17 -1.82521871E-16  3.07736345E-16
 -1.55585224E-16  3.10780359E-02 -2.40771537E-16  1.71299571E-15 -1.00149269E-16
 -5.58545770E-16  3.10780359E-02  2.58100751E-16 -1.85505958E-01  4.58834082E-01
  4.98234860E-01  9.30580710E-19  8.11659268E-16  1.96463343E-01 -1.69217187E-16
  5.30476948E-16  1.89160672E-01 -7.61040603E-03 -3.60375719E-16 -4.34503714E-17
  4.01055973E-04  1.53278651E-17  6.86685077E-02 -1.07940362E-02  1.71386470E-02
 -7.67103655E-17  2.15431937E-02  6.86685077E-02 -1.07940362E-02 -1.71386470E-02
  1.66774699E-16  2.15431937E-02 -3.54002889E-02  8.38506224E-02 -1.22815757E-01
 -6.85561932E-15 -1.31440319E-15 -5.14929707E-01 -5.12385603E-15 -1.09503693E-15
 -3.12817021E-01  1.62199136E-02  6.30460442E-16  4.14114531E-17  5.48230064E-03
  7.94903252E-17  2.74487674E-01  4.01313336E-02  4.59053498E-02  9.61744695E-17
  3.36972558E-03  2.74487674E-01  4.01313336E-02 -4.59053498E-02 -3.38420214E-16
  3.36972558E-03  6.25201923E-17 -1.71111863E-15  2.53861595E-15 -4.89970234E-01
  1.10862581E-15  6.54606813E-15 -2.21871744E-01  6.29968440E-16  3.82841059E-15
 -4.02133931E-16  2.68096316E-02  4.60026628E-17 -3.60956514E-16 -2.95060723E-17
  3.27986184E-01  8.97754475E-02  2.33201782E-02  3.24960652E-16  3.26658433E-02
 -3.27986184E-01 -8.97754475E-02  2.33201782E-02  2.36608160E-16 -3.26658433E-02
Localized Beta  MO Coefficients (OSLO)     R   N=         120
 -1.00251599E+00 -3.12071525E-03  1.50243918E-02  6.12997587E-16  5.24468555E-16
  4.85714855E-03 -8.74194006E-16  3.79381168E-16  3.19249455E-03 -3.79763756E-17
 -1.07213450E-04 -5.94302915E-16  7.33201209E-17 -1.45078561E-04  3.05608823E-03
 -5.46325018E-04  1.18819131E-03 -1.73748910E-16  1.04966588E-03  3.05608823E-03
 -5.46325018E-04 -1.18819131E-03 -5.13009213E-16  1.04966588E-03  5.99556038E-16
 -1.67766434E-16 -1.39711752E-15  8.87260474E-16  6.31170257E-01 -1.32053925E-15
  1.28382465E-16  4.95654764E-01 -6.97454517E-16 -1.82051212E-02 -3.43135210E-17
  1.11491203E-16 -2.03004189E-17  4.06508060E-17 -1.82521871E-16  3.07736345E-16
 -1.55585224E-16  3.10780359E-02 -2.40771537E-16  1.71299571E-15 -1.00149269E-16
 -5.58545770E-16  3.10780359E-02  2.58100751E-16 -1.85505958E-01  4.58834082E-01
  4.98234860E-01  9.30580710E-19  8.11659268E-16  1.96463343E-01 -1.69217187E-16
  5.30476948E-16  1.89160672E-01 -4.34503714E-17  4.01055973E-04 -3.60375719E-16
  1.53278651E-17 -7.61040603E-03  6.86685077E-02 -1.07940362E-02  1.71386470E-02
 -7.67103655E-17  2.15431937E-02  6.86685077E-02 -1.07940362E-02 -1.71386470E-02
  1.66774699E-16  2.15431937E-02 -3.54002889E-02  8.38506224E-02 -1.22815757E-01
 -6.85561932E-15 -1.31440319E-15 -5.14929707E-01 -5.12385603E-15 -1.09503693E-15
 -3.12817021E-01  4.14114531E-17  5.48230064E-03  6.30460442E-16  7.94903252E-17
  1.62199136E-02  2.74487674E-01  4.01313336E-02  4.59053498E-02  9.61744695E-17
  3.36972558E-03  2.74487674E-01  4.01313336E-02 -4.59053498E-02 -3.38420214E-16
  3.36972558E-03  6.25201923E-17 -1.71111863E-15  2.53861595E-15 -4.89970234E-01
  1.10862581E-15  6.54606813E-15 -2.21871744E-01  6.29968440E-16  3.82841059E-15
  4.60026628E-17 -3.60956514E-16  2.68096316E-02 -2.95060723E-17 -4.02133931E-16
  3.27986184E-01  8.97754475E-02  2.33201782E-02  3.24960652E-16  3.26658433E-02
 -3.27986184E-01 -8.97754475E-02  2.33201782E-02  2.36608160E-16 -3.26658433E-02
Orbital Coefficients CCMAN2 Alpha          R   N=         576
  9.97267881E-01  1.52470555E-02 -2.66588934E-03 -6.38903534E-16 -5.08414898E-16
 -1.76287767E-03  8.50008537E-16 -3.69776264E-16  4.83848685E-04 -7.25977954E-17
  3.70032466E-17  1.10211790E-05  5.87231465E-16  1.38399528E-04 -2.41430313E-04
  4.21367157E-04 -5.71724144E-04  1.72082698E-16 -4.82067285E-04 -2.41430313E-04
  4.21367157E-04  5.71724144E-04  5.15837150E-16 -4.82067285E-04 -2.03630173E-01
  4.41433797E-01  3.75739299E-01 -3.31962459E-15  8.21378103E-17 -7.88243642E-02
 -2.66188760E-15 -6.02344407E-17  1.30881468E-02  5.38439487E-17 -1.87236639E-17
  1.24126413E-03 -2.24641786E-17  3.01486349E-03  1.93587047E-01  1.00843730E-02
  3.73302792E-02 -2.44321279E-17  2.04793610E-02  1.93587047E-01  1.00843730E-02
 -3.73302792E-02 -3.14817071E-17  2.04793610E-02  6.85235167E-02 -1.49910342E-01
 -3.49800357E-01 -5.99559655E-15 -1.54799271E-15 -5.45488453E-01 -4.38618172E-15
 -1.21822784E-15 -3.65342178E-01  6.13178985E-17  5.76648287E-17  1.78741173E-02
  7.31574705E-16  4.59558534E-03  2.06378739E-01  4.03170125E-02  3.17579841E-02
  1.22936199E-16 -7.54515920E-03  2.06378739E-01  4.03170125E-02 -3.17579841E-02
 -3.72077183E-16 -7.54515920E-03  6.25201923E-17 -1.71111863E-15  2.53861595E-15
 -4.89970234E-01  1.10862581E-15  6.54606813E-15 -2.21871744E-01  6.29968440E-16
  3.82841059E-15 -2.95060723E-17  4.60026628E-17 -4.02133931E-16  2.68096316E-02
 -3.60956514E-16  3.27986184E-01  8.97754475E-02  2.33201782E-02  3.24960652E-16
  3.26658433E-02 -3.27986184E-01 -8.97754475E-02  2.33201782E-02  2.36608160E-16
 -3.26658433E-02  5.99556038E-16 -1.67766434E-16 -1.39711752E-15  8.87260474E-16
  6.31170257E-01 -1.32053925E-15  1.28382465E-16  4.95654764E-01 -6.97454517E-16
 -2.03004189E-17 -1.82051212E-02  4.06508060E-17  1.11491203E-16 -3.43135210E-17
 -1.82521871E-16  3.07736345E-16 -1.55585224E-16  3.10780359E-02 -2.40771537E-16
  1.71299571E-15 -1.00149269E-16 -5.58545770E-16  3.10780359E-02  2.58100751E-16
  8.39353825E-02 -7.16543470E-02 -1.00274017E+00 -2.35311648E-15  1.04526836E-16
  1.90498199E-01 -8.14988748E-15  8.55004989E-18  3.36959473E-01  8.97754888E-17
 -4.73043760E-17 -7.52573609E-03  5.78340495E-16 -9.98720949E-03  5.89531427E-02
  8.29300485E-01  1.75639782E-02 -2.08755453E-16  1.63303784E-02  5.89531427E-02
  8.29300485E-01 -1.75639782E-02  1.64278978E-16  1.63303784E-02 -4.79849993E-02
  2.55954237E-01 -3.19724313E-01  2.44204670E-15  6.63832500E-16 -3.29200842E-01
  7.61586525E-15 -9.79163329E-16  9.73585833E-03  5.05920717E-17 -1.97055284E-17
 -9.30890344E-04  1.77874024E-15 -1.07057869E-01 -7.87474316E-01  5.47685937E-01
  2.96097590E-01  2.38327476E-16  5.91794831E-02 -7.87474316E-01  5.47685937E-01
 -2.96097590E-01  5.48735955E-16  5.91794831E-02 -4.74821145E-02  1.14405044E-01
  7.49301474E-01 -5.07677758E-15  2.66847327E-16  7.54457548E-01  8.55237067E-15
 -1.34388339E-16 -1.27925553E+00 -2.47483478E-16 -7.58584495E-17  1.27510255E-02
 -1.62660634E-15 -6.67133259E-03 -5.46912230E-01 -1.13125509E-01 -8.44938592E-02
 -3.80363276E-16 -2.50717071E-01 -5.46912230E-01 -1.13125509E-01  8.44938592E-02
  2.06552015E-16 -2.50717071E-01 -3.21966724E-02  5.30568895E-01 -5.07242539E-01
 -5.99515489E-15  6.97354518E-16  1.32216403E-01  1.31261174E-14 -2.19468386E-15
 -7.39552161E-01 -4.91975024E-16 -2.30378257E-17 -1.17198844E-01  3.00999647E-16
  4.65078448E-03 -3.33122193E-01  2.09645020E-01 -3.29141831E-01  4.18315305E-15
  5.45702992E-01 -3.33122193E-01  2.09645020E-01  3.29141831E-01 -1.37638763E-15
  5.45702992E-01 -1.91586475E-02 -1.59822827E+00  3.03486435E+00  3.83145653E-17
 -3.76148781E-16 -1.10105903E-01  2.05090907E-14 -2.90420953E-15 -9.67829739E-01
  2.47660511E-16 -1.62907666E-15 -1.14156656E-01 -1.31752553E-16 -1.08131699E-01
 -8.28726623E-01 -3.88057128E-01 -3.73106420E-01  4.29590943E-15  2.34432226E-02
 -8.28726623E-01 -3.88057128E-01  3.73106420E-01  2.94709118E-15  2.34432226E-02
  4.42606041E-02 -7.31172736E-01 -7.92621171E-01  5.74406248E-15  2.88158667E-16
  6.69435756E-01  5.24030848E-15  2.37589266E-17  1.79742762E-01 -3.25580646E-16
 -1.06973177E-15  5.31718324E-02  3.81385572E-15  2.17539912E-01  4.78848906E-01
  1.58789450E-01  7.44653535E-01 -5.71599509E-16  5.36820240E-01  4.78848906E-01
  1.58789450E-01 -7.44653535E-01 -6.52465422E-16  5.36820240E-01  1.59646853E-02
  1.54961601E-01 -5.60816896E-01 -1.83128027E-15 -7.49589170E-17  1.97312169E-02
 -2.75230767E-15 -9.71428672E-16  5.38968881E-01 -6.27454983E-15  2.45727388E-15
 -1.08473916E+00  2.95485824E-15  1.74672112E-01  3.07673083E-01  3.80891533E-02
  3.53178119E-01 -1.09630154E-15 -3.14921891E-01  3.07673083E-01  3.80891533E-02
 -3.53178119E-01  4.20491615E-15 -3.14921891E-01 -6.46929620E-02 -1.76619135E-01
  2.26885339E+00  2.95281927E-15  7.18618865E-16 -4.05160471E-01  6.42178495E-15
 -7.38890652E-16 -9.21317361E-01  1.29094099E-15 -4.49564248E-16  1.33811822E-01
 -1.00644781E-14  1.16006103E+00 -1.23863764E+00 -1.91743578E-01 -6.20581261E-01
  1.26820466E-15 -4.93670868E-01 -1.23863764E+00 -1.91743578E-01  6.20581261E-01
 -1.76492523E-15 -4.93670868E-01  1.29840574E-16 -1.20320979E-15  4.30445419E-16
  9.57908747E-16 -1.06273955E-15 -3.59505119E-16 -1.57531806E-15 -7.48648094E-16
  2.83550615E-15 -1.31260830E-01 -1.15262290E-15  3.00924148E-16 -1.82558991E-17
 -5.08723474E-16  5.80341417E-16  1.91333239E-16  2.19580922E-15  6.85609237E-01
 -2.85083388E-15  1.70126176E-15 -8.53720086E-16 -1.40346198E-15 -6.85609237E-01
 -2.01481337E-15  2.01863674E-16  1.89168039E-15 -9.32499501E-15  1.21420281E-15
  9.13722791E-16  1.49458904E-15  7.73118605E-16 -8.21388850E-15  4.71161084E-15
  1.06626304E+00  2.39999224E-14 -6.26810718E-15 -8.63873379E-16 -3.61827100E-16
  5.39277266E-15  1.37801077E-15  4.89527407E-15  3.71538526E-01  8.66834423E-17
  3.65044726E-15  5.70613152E-17 -2.72547938E-15 -3.71538526E-01 -1.38437212E-15
  8.62542087E-16 -1.18406356E-15 -6.32930465E-15  2.83168373E-01  2.64664797E-16
  9.90866903E-16  6.71002752E-01  2.13892896E-16  1.57583017E-15 -4.88834915E-17
 -6.94563450E-17 -3.33554137E-16 -2.12634618E-02  5.42382745E-16  2.59437716E-02
  1.44439025E+00  2.08385381E-02 -3.17160744E-16  1.71654519E-02 -2.59437716E-02
 -1.44439025E+00  2.08385381E-02  1.37699656E-16 -1.71654519E-02 -3.73705870E-16
  5.18978759E-15 -1.35192879E-14 -2.67947918E-01  1.94863051E-16 -5.47500640E-15
 -4.61286740E-01 -3.43622535E-16  5.62004248E-15  1.35569647E-17 -1.46161932E-16
 -1.61163001E-16 -1.11730075E-01 -1.80651299E-15 -9.44354106E-01  6.86064679E-01
  7.39989286E-02 -6.27551472E-17  1.52933066E-01  9.44354106E-01 -6.86064679E-01
  7.39989286E-02  4.37446733E-16 -1.52933066E-01  6.33748589E-16 -7.62293989E-15
  3.88574261E-15 -7.34053647E-01 -1.38675883E-16 -4.24045196E-15  1.76432278E+00
  2.33951456E-15  1.03393234E-14 -1.51021954E-16  2.33674016E-16  6.77567910E-16
 -4.46146276E-02  6.50377075E-16  3.79478814E-01  8.25486068E-01  3.02709992E-01
 -8.93840521E-16  1.86702846E-01 -3.79478814E-01 -8.25486068E-01  3.02709992E-01
 -2.17698624E-15 -1.86702846E-01  2.92115371E-16  4.76771802E-14 -7.59421872E-14
 -1.03598948E-02  6.58820880E-16 -1.92322161E-15  9.01764065E-01 -4.02082551E-15
  2.36669265E-14 -3.96569933E-17 -1.47833356E-15  2.66507612E-15  2.93894364E-02
  2.42189658E-15  3.87828851E-01  9.15604591E-02 -4.71953292E-01  4.94376641E-15
  6.93136053E-01 -3.87828851E-01 -9.15604591E-02 -4.71953292E-01  3.54989617E-15
 -6.93136053E-01 -3.37706691E-17  2.58723588E-15  7.11748369E-15  8.39406578E-01
 -3.82116806E-16 -3.43198100E-15  1.52739900E-01  1.06958672E-15 -3.27184734E-15
 -5.86874747E-16  1.45618757E-15 -1.19096844E-15  1.38648730E-01 -1.31523963E-15
  2.95624610E-01  3.29983525E-01  7.24406256E-01 -1.53265197E-15  5.55180089E-01
 -2.95624610E-01 -3.29983525E-01  7.24406256E-01  9.37571014E-17 -5.55180089E-01
  5.78680786E-16 -6.35665870E-16 -1.98876877E-14  4.69240167E-01  3.65579414E-16
  3.17182170E-15  1.14476173E+00 -1.62465332E-16  9.94812746E-15 -1.00561131E-15
  3.67288969E-16 -3.19422712E-15 -1.32554921E+00 -7.63104439E-15  1.08699711E+00
  2.88591908E-01  6.06202240E-01 -1.99454463E-16  4.93665546E-01 -1.08699711E+00
 -2.88591908E-01  6.06202240E-01  2.67184904E-16 -4.93665546E-01 -5.93946639E-17
  6.46375482E-16 -5.32497434E-16  3.31823074E-16 -9.67823737E-01  8.19533426E-17
 -7.80667960E-16  1.02521817E+00 -9.57589354E-16  3.24196174E-16  3.52291704E-03
  5.84693023E-17 -1.33894461E-16  2.49688655E-16 -1.47769622E-15  4.49249732E-16
 -4.48393488E-16  8.10503645E-03  5.63985705E-16 -6.75302459E-16  7.58322489E-16