Jobname.Temp
SP        R                             cc-pVDZ             
Number of atoms                            I                3
Charge                                     I                0
Multiplicity                               I                1
Number of electrons                        I               10
Number of alpha electrons                  I                5
Number of beta electrons                   I                5
Atomic numbers                             I   N=           3
           8           1           1
Current cartesian coordinates              R   N=           9
  0.00000000E+00  0.00000000E+00  2.21664874E-01 -1.43090062E+00 -8.76173933E-17
 -8.86659498E-01  1.43090062E+00  8.76173933E-17 -8.86659498E-01
Nuclear charges                            R   N=           3
  8.00000000E+00  1.00000000E+00  1.00000000E+00
Number of basis functions                  I               25
Number of contracted shells                I               12
Number of primitive shells                 I               30
Highest angular momentum                   I                2
Largest degree of contraction              I                7
Shell types                                I   N=          12
           0           0           0           1           1           2
           0           0           1           0           0           1
Number of primitives per shell             I   N=          12
           7           7           1           3           1           1
           3           1           1           3           1           1
Shell to atom map                          I   N=          12
           1           1           1           1           1           1
           2           2           2           3           3           3
Primitive exponents                        R   N=          30
  1.17200000E+04  1.75900000E+03  4.00800000E+02  1.13700000E+02  3.70300000E+01
  1.32700000E+01  5.02500000E+00  1.17200000E+04  1.75900000E+03  1.13700000E+02
  3.70300000E+01  1.32700000E+01  5.02500000E+00  1.01300000E+00  3.02300000E-01
  1.77000000E+01  3.85400000E+00  1.04600000E+00  2.75300000E-01  1.18500000E+00
  1.30100000E+01  1.96200000E+00  4.44600000E-01  1.22000000E-01  7.27000000E-01
  1.30100000E+01  1.96200000E+00  4.44600000E-01  1.22000000E-01  7.27000000E-01
Contraction coefficients                   R   N=          30
  7.11859989E-04  5.48520206E-03  2.79099247E-02  1.05133208E-01  2.84002488E-01
  4.51673950E-01  2.73208124E-01 -3.13436252E-07 -6.17665315E-05 -4.15726173E-03
 -1.41000865E-02 -1.26138482E-01 -1.09614593E-01  1.09868833E+00  1.00000000E+00
  6.26791663E-02  3.33536566E-01  7.41239642E-01  1.00000000E+00  1.00000000E+00
  3.34987264E-02  2.34800801E-01  8.13682958E-01  1.00000000E+00  1.00000000E+00
  3.34987264E-02  2.34800801E-01  8.13682958E-01  1.00000000E+00  1.00000000E+00
Coordinates of each shell                  R   N=          36
  0.00000000E+00  0.00000000E+00  2.21664874E-01  0.00000000E+00  0.00000000E+00
  2.21664874E-01  0.00000000E+00  0.00000000E+00  2.21664874E-01  0.00000000E+00
  0.00000000E+00  2.21664874E-01  0.00000000E+00  0.00000000E+00  2.21664874E-01
  0.00000000E+00  0.00000000E+00  2.21664874E-01 -1.43090062E+00 -8.76173933E-17
 -8.86659498E-01 -1.43090062E+00 -8.76173933E-17 -8.86659498E-01 -1.43090062E+00
 -8.76173933E-17 -8.86659498E-01  1.43090062E+00  8.76173933E-17 -8.86659498E-01
  1.43090062E+00  8.76173933E-17 -8.86659498E-01  1.43090062E+00  8.76173933E-17
 -8.86659498E-01
Overlap Matrix                             R   N=         325
  1.00000000E+00  2.14476014E-01  1.00000000E+00  1.83816867E-01  7.92109402E-01
  1.00000000E+00  0.00000000E+00  0.00000000E+00  0.00000000E+00  1.00000000E+00
  0.00000000E+00  0.00000000E+00  0.00000000E+00  0.00000000E+00  1.00000000E+00
 -1.65345003E-17 -1.81973103E-17 -2.82447930E-17  0.00000000E+00  0.00000000E+00
  1.00000000E+00  0.00000000E+00  0.00000000E+00  0.00000000E+00  5.01271483E-01
  0.00000000E+00  0.00000000E+00  1.00000000E+00  0.00000000E+00  0.00000000E+00
  0.00000000E+00  0.00000000E+00  5.01271483E-01  0.00000000E+00  0.00000000E+00
  1.00000000E+00  4.12883618E-18 -2.56129517E-17 -2.90784214E-17  0.00000000E+00
  0.00000000E+00  5.01271483E-01  0.00000000E+00  0.00000000E+00  1.00000000E+00
  6.15100554E-02  6.59034999E-01  6.64283768E-01  0.00000000E+00  0.00000000E+00
  8.06860723E-18  0.00000000E+00  0.00000000E+00 -3.77645449E-17  1.00000000E+00
  6.15100554E-02  6.59034999E-01  6.64283768E-01  0.00000000E+00  0.00000000E+00
  8.06860723E-18  0.00000000E+00  0.00000000E+00 -3.77645449E-17  3.33333333E-01
  1.00000000E+00  6.15100554E-02  6.59034999E-01  6.64283768E-01  0.00000000E+00
  0.00000000E+00  2.42058217E-17  0.00000000E+00  0.00000000E+00 -1.13293635E-16
  3.33333333E-01  3.33333333E-01  1.00000000E+00  0.00000000E+00  0.00000000E+00
  0.00000000E+00  0.00000000E+00  0.00000000E+00  0.00000000E+00  0.00000000E+00
  0.00000000E+00  0.00000000E+00  0.00000000E+00  0.00000000E+00  0.00000000E+00
  1.00000000E+00  0.00000000E+00  0.00000000E+00  0.00000000E+00  1.39752377E-17
  0.00000000E+00  0.00000000E+00 -6.54101106E-17  0.00000000E+00  0.00000000E+00
  0.00000000E+00  0.00000000E+00  0.00000000E+00  0.00000000E+00  1.00000000E+00
  0.00000000E+00  0.00000000E+00  0.00000000E+00  0.00000000E+00  1.39752377E-17
  0.00000000E+00  0.00000000E+00 -6.54101106E-17  0.00000000E+00  0.00000000E+00
  0.00000000E+00  0.00000000E+00  0.00000000E+00  0.00000000E+00  1.00000000E+00
  4.97985668E-02  2.99065204E-01  4.96859815E-01 -2.22852505E-01 -1.36457804E-17
 -1.72613569E-01 -4.92019529E-01 -3.01275071E-17 -3.81100705E-01  3.52064572E-01
  2.07898927E-01  2.94391059E-01  1.52898514E-17  1.93410398E-01  1.18429712E-17
  1.00000000E+00  6.49069385E-02  3.55068357E-01  6.47846960E-01 -8.39344408E-02
 -5.13950221E-18 -6.50126116E-02 -3.09745915E-01 -1.89664672E-17 -2.39918092E-01
  3.38477908E-01  3.23396950E-01  3.32444766E-01  1.59944908E-18  2.02323800E-02
  1.23887597E-18  6.84860251E-01  1.00000000E+00  8.28595469E-02  3.56823401E-01
  3.09561969E-01 -1.64026127E-01 -2.20255571E-17 -2.78614335E-01  7.13616850E-02
 -1.95993380E-17 -2.47923651E-01  2.14136801E-01  2.36627633E-01  3.97325517E-01
  1.30112133E-17  1.64586554E-01  2.20036247E-17  2.98375835E-16  2.22505918E-16
  1.00000000E+00  5.07368395E-18  2.18491318E-17  1.89552037E-17 -2.20255571E-17
  1.95678518E-01 -1.70602077E-17 -1.95993380E-17  3.91443166E-01 -1.51809453E-17
  3.08904850E-17 -3.28912399E-18  2.43291711E-17 -2.51444504E-01  2.20036247E-17
 -1.94759907E-01 -4.13191221E-33  1.23515596E-32  0.00000000E+00  1.00000000E+00
  6.41800373E-02  2.76382626E-01  2.39775614E-01 -2.78614335E-01 -1.70602077E-17
 -2.01261669E-02 -2.47923651E-01 -1.51809453E-17  1.99410385E-01  3.90752066E-01
  1.83283290E-01  8.28647448E-02  2.20036247E-17  2.68923944E-02  1.64668424E-18
  0.00000000E+00  0.00000000E+00  0.00000000E+00  0.00000000E+00  1.00000000E+00
  4.97985668E-02  2.99065204E-01  4.96859815E-01  2.22852505E-01  1.36457804E-17
 -1.72613569E-01  4.92019529E-01  3.01275071E-17 -3.81100705E-01  3.52064572E-01
  2.07898927E-01  2.94391059E-01  1.52898514E-17 -1.93410398E-01 -1.18429712E-17
  1.20995059E-01  3.07441955E-01  1.59674981E-01  9.77727271E-18  0.00000000E+00
  1.00000000E+00  6.49069385E-02  3.55068357E-01  6.47846960E-01  8.39344408E-02
  5.13950221E-18 -6.50126116E-02  3.09745915E-01  1.89664672E-17 -2.39918092E-01
  3.38477908E-01  3.23396950E-01  3.32444766E-01  1.59944908E-18 -2.02323800E-02
 -1.23887597E-18  3.07441955E-01  6.06782854E-01  1.75152006E-01  1.07249672E-17
  0.00000000E+00  6.84860251E-01  1.00000000E+00 -8.28595469E-02 -3.56823401E-01
 -3.09561969E-01 -1.64026127E-01 -2.20255571E-17  2.78614335E-01  7.13616850E-02
 -1.95993380E-17  2.47923651E-01 -2.14136801E-01 -2.36627633E-01 -3.97325517E-01
 -1.30112133E-17  1.64586554E-01  2.20036247E-17 -1.59674981E-01 -1.75152006E-01
 -2.52379056E-01 -1.85731722E-17  2.35345547E-17 -2.98375835E-16 -2.22505918E-16
  1.00000000E+00 -5.07368395E-18 -2.18491318E-17 -1.89552037E-17 -2.20255571E-17
  1.95678518E-01  1.70602077E-17 -1.95993380E-17  3.91443166E-01  1.51809453E-17
 -3.08904850E-17  3.28912399E-18 -2.43291711E-17  2.51444504E-01  2.20036247E-17
 -1.94759907E-01 -9.77727271E-18 -1.07249672E-17 -1.85731722E-17  5.09438639E-02
  1.44107585E-33  4.13191221E-33 -1.23515596E-32  0.00000000E+00  1.00000000E+00
  6.41800373E-02  2.76382626E-01  2.39775614E-01  2.78614335E-01  1.70602077E-17
 -2.01261669E-02  2.47923651E-01  1.51809453E-17  1.99410385E-01  3.90752066E-01
  1.83283290E-01  8.28647448E-02  2.20036247E-17 -2.68923944E-02 -1.64668424E-18
  0.00000000E+00  0.00000000E+00 -2.35345547E-17 -1.44107585E-33  5.09438639E-02
  0.00000000E+00  0.00000000E+00  0.00000000E+00  0.00000000E+00  1.00000000E+00
Core Hamiltonian Matrix                    R   N=         325
 -3.30440427E+01 -6.61306869E+00 -9.72061268E+00 -5.83997113E+00 -7.64420522E+00
 -7.61917467E+00  0.00000000E+00  0.00000000E+00  0.00000000E+00 -8.56189171E+00
  0.00000000E+00  0.00000000E+00  0.00000000E+00  0.00000000E+00 -8.45575349E+00
  2.81386468E-02  1.83345776E-01  1.77838409E-01  0.00000000E+00  0.00000000E+00
 -8.51943108E+00  0.00000000E+00  0.00000000E+00  0.00000000E+00 -3.84827461E+00
  0.00000000E+00  0.00000000E+00 -4.83207618E+00  0.00000000E+00  0.00000000E+00
  0.00000000E+00  0.00000000E+00 -3.75129208E+00  0.00000000E+00  0.00000000E+00
 -4.60646762E+00  4.08170495E-03  1.18015426E-01  2.42181191E-01  0.00000000E+00
  0.00000000E+00 -3.80947672E+00  0.00000000E+00  0.00000000E+00 -4.74182140E+00
 -1.93765556E+00 -5.80045766E+00 -5.26551684E+00  0.00000000E+00  0.00000000E+00
  1.21971906E-01  0.00000000E+00  0.00000000E+00  1.27259591E-01 -6.05972141E+00
 -1.93512205E+00 -5.70476355E+00 -5.13596579E+00  0.00000000E+00  0.00000000E+00
  7.12612514E-02  0.00000000E+00  0.00000000E+00  6.02234002E-02 -3.02375701E+00
 -5.82063241E+00 -1.93664203E+00 -5.76217520E+00 -5.21368990E+00  0.00000000E+00
  0.00000000E+00  2.44207595E-01  0.00000000E+00  0.00000000E+00  2.20888541E-01
 -3.07656737E+00 -3.01167034E+00 -5.95019837E+00  0.00000000E+00  0.00000000E+00
  0.00000000E+00  0.00000000E+00  0.00000000E+00  0.00000000E+00  0.00000000E+00
  0.00000000E+00  0.00000000E+00  0.00000000E+00  0.00000000E+00  0.00000000E+00
 -4.33127102E+00  0.00000000E+00  0.00000000E+00  0.00000000E+00  2.11261538E-01
  0.00000000E+00  0.00000000E+00  2.20420077E-01  0.00000000E+00  0.00000000E+00
  0.00000000E+00  0.00000000E+00  0.00000000E+00  0.00000000E+00 -4.48970210E+00
  0.00000000E+00  0.00000000E+00  0.00000000E+00  0.00000000E+00  1.23428108E-01
  0.00000000E+00  0.00000000E+00  1.04309989E-01  0.00000000E+00  0.00000000E+00
  0.00000000E+00  0.00000000E+00  0.00000000E+00  0.00000000E+00 -4.29501101E+00
 -1.58539439E+00 -2.84868209E+00 -3.46344828E+00  1.76125348E+00 -1.06670349E-17
  1.40599636E+00  2.52523241E+00 -2.06978956E-17  2.01028977E+00 -2.63432974E+00
 -1.72825358E+00 -2.29969145E+00  2.38770751E-17 -1.21502126E+00  1.84943272E-17
 -5.13155569E+00 -2.06415113E+00 -3.36236357E+00 -4.21814188E+00  6.53849583E-01
 -2.42156037E-18  5.85794146E-01  1.34050092E+00 -7.12880464E-18  1.19179436E+00
 -2.62875008E+00 -2.45875244E+00 -2.57631590E+00  1.11021618E-18 -1.63605730E-01
  8.59933686E-19 -3.56953300E+00 -4.21696154E+00 -2.63458495E+00 -3.47569270E+00
 -2.89285059E+00  1.28658505E+00 -3.96758915E-17  2.20604289E+00  8.02808041E-02
 -2.22755486E-17  1.59404782E+00 -1.83221604E+00 -2.01924973E+00 -2.88458479E+00
  4.93307512E-17 -7.75961092E-01  5.99610236E-17 -1.23322080E+00 -1.05747183E+00
 -4.21800625E+00  2.10129131E-18  2.13504757E-17  1.45745295E-17 -3.96758915E-17
 -1.48569373E+00 -3.07315245E-17 -2.22755486E-17 -1.90711101E+00 -1.72538421E-17
  5.00538583E-17 -2.70664447E-17  3.21739360E-17  1.33423237E+00  5.99610236E-17
  1.05749572E+00  0.00000000E+00  0.00000000E+00  0.00000000E+00 -3.38214569E+00
 -2.03940198E+00 -2.66235165E+00 -2.18793544E+00  2.13830902E+00 -3.07315245E-17
  1.97931615E-01  1.51387418E+00 -1.72538421E-17 -7.21489263E-01 -2.59101545E+00
 -1.55015491E+00 -9.79549678E-01  5.99610236E-17 -7.73989730E-02  1.83618173E-17
 -8.95722256E-01 -7.63435346E-01 -6.13342628E-01  0.00000000E+00 -3.85721892E+00
 -1.58539439E+00 -2.84868209E+00 -3.46344828E+00 -1.76125348E+00  1.06670349E-17
  1.40599636E+00 -2.52523241E+00  2.06978956E-17  2.01028977E+00 -2.63432974E+00
 -1.72825358E+00 -2.29969145E+00  2.38770751E-17  1.21502126E+00 -1.84943272E-17
 -9.40921931E-01 -1.88636103E+00 -1.29283850E+00  9.02747449E-20 -2.15049987E-01
 -5.13155569E+00 -2.06415113E+00 -3.36236357E+00 -4.21814188E+00 -6.53849583E-01
  2.42156037E-18  5.85794146E-01 -1.34050092E+00  7.12880464E-18  1.19179436E+00
 -2.62875008E+00 -2.45875244E+00 -2.57631590E+00  1.11021618E-18  1.63605730E-01
 -8.59933686E-19 -1.88636103E+00 -2.96277899E+00 -1.48693848E+00  3.68487481E-18
 -4.70107646E-01 -3.56953300E+00 -4.21696154E+00  2.63458495E+00  3.47569270E+00
  2.89285059E+00  1.28658505E+00 -3.96758915E-17 -2.20604289E+00  8.02808041E-02
 -2.22755486E-17 -1.59404782E+00  1.83221604E+00  2.01924973E+00  2.88458479E+00
 -4.93307512E-17 -7.75961092E-01  5.99610236E-17  1.29283850E+00  1.48693848E+00
  1.98598644E+00 -7.06149203E-18  3.26847490E-01  1.23322080E+00  1.05747183E+00
 -4.21800625E+00 -2.10129131E-18 -2.13504757E-17 -1.45745295E-17 -3.96758915E-17
 -1.48569373E+00  3.07315245E-17 -2.22755486E-17 -1.90711101E+00  1.72538421E-17
 -5.00538583E-17  2.70664447E-17 -3.21739360E-17 -1.33423237E+00  5.99610236E-17
  1.05749572E+00 -9.02747449E-20 -3.68487481E-18 -7.06149203E-18 -3.52470067E-01
  0.00000000E+00  0.00000000E+00  0.00000000E+00  0.00000000E+00 -3.38214569E+00
 -2.03940198E+00 -2.66235165E+00 -2.18793544E+00 -2.13830902E+00  3.07315245E-17
  1.97931615E-01 -1.51387418E+00  1.72538421E-17 -7.21489263E-01 -2.59101545E+00
 -1.55015491E+00 -9.79549678E-01  5.99610236E-17  7.73989730E-02 -1.83618173E-17
 -2.15049987E-01 -4.70107646E-01 -3.26847490E-01  0.00000000E+00 -4.72138079E-01
 -8.95722256E-01 -7.63435346E-01  6.13342628E-01  0.00000000E+00 -3.85721892E+00
Number of independent functions            I               25
Alpha MO coefficients                      R   N=         625
  9.96956135E-01  1.61818607E-02 -1.05696481E-03 -2.21811775E-16 -9.13828554E-17
 -1.64111163E-03  7.48621640E-16 -2.10344706E-16  3.96100586E-04 -1.06596849E-03
 -1.20257016E-03 -1.11225186E-03  2.86168904E-16  6.62980691E-17  1.27304643E-16
 -1.65839573E-04  2.05159839E-04 -4.19467192E-04  3.95067837E-16 -3.39433538E-04
 -1.65839573E-04  2.05159839E-04  4.19467192E-04  2.27090881E-17 -3.39433538E-04
 -2.02704241E-01  4.39724093E-01  3.69685763E-01  3.28479770E-16  1.18581531E-17
 -7.90492030E-02 -4.74513624E-16 -2.33209233E-16  1.35865575E-02  5.45609885E-03
 -5.95460962E-06  4.56741040E-03 -4.28422539E-18 -5.47031694E-17  1.52231826E-17
  1.93450785E-01  1.10501285E-02  3.68521031E-02  7.50458830E-17  2.00564904E-02
  1.93450785E-01  1.10501285E-02 -3.68521031E-02  1.78440573E-16  2.00564904E-02
 -9.55075613E-16  2.91925665E-15  3.70217407E-15 -4.90072413E-01  1.84938732E-16
  6.65982354E-15 -2.22026820E-01  3.86188850E-16  5.28062555E-15 -3.32129400E-16
  3.50756231E-16 -7.39554256E-16  2.35379581E-17  2.67863764E-02 -8.96118753E-18
  3.27817440E-01  8.98650101E-02  2.33130304E-02 -4.05521820E-17  3.26505584E-02
 -3.27817440E-01 -8.98650101E-02  2.33130304E-02 -2.69340231E-16 -3.26505584E-02
 -7.05567960E-02  1.52988547E-01  3.64905801E-01  5.91447206E-15  6.27395084E-16
  5.45898154E-01  2.04226138E-15  3.65623864E-16  3.63969298E-01 -2.57217492E-03
  5.97478850E-03 -2.50767290E-02 -3.53584646E-17 -4.32049291E-17  7.11588304E-17
 -2.06712781E-01 -4.29614159E-02 -3.07684615E-02  3.50687945E-18  8.41262538E-03
 -2.06712781E-01 -4.29614159E-02  3.07684615E-02  4.01794129E-16  8.41262538E-03
 -1.05949359E-16  2.07308673E-16  2.31705013E-16 -6.99462814E-18 -6.31313262E-01
  5.69668387E-16 -7.16861154E-16 -4.95560358E-01  4.56865384E-16 -1.01649515E-16
  8.94529468E-17 -9.16437200E-17  4.63865213E-17  1.06829989E-16  1.81787515E-02
 -5.21646640E-16 -1.88322630E-17 -3.02232514E-17 -3.10370689E-02 -5.56813545E-17
  4.13967033E-17  2.57729835E-16 -9.33834301E-17 -3.10370689E-02  1.45948582E-16
 -9.19955078E-02  7.95883946E-02  1.06731887E+00 -5.71832891E-15  3.21765677E-17
 -1.89330461E-01 -1.61296271E-14 -3.69729078E-17 -3.41557476E-01 -2.62433628E-02
 -4.10550136E-02 -2.23851706E-02 -9.82953820E-17  1.04165676E-15 -6.66130472E-17
 -6.00935681E-02 -8.37725680E-01 -1.33003021E-02 -2.40187576E-16 -1.26038715E-02
 -6.00935681E-02 -8.37725680E-01  1.33003021E-02  1.19754038E-16 -1.26038715E-02
 -1.83848879E-15  7.69271581E-15  8.40901015E-15  2.83398230E-01 -1.68624077E-16
 -5.42682471E-15  6.70940320E-01  2.71492442E-17 -3.27249010E-15  4.18309322E-16
  1.19194859E-15  8.95787903E-16  9.27211787E-17 -2.11911073E-02  9.64206123E-18
  2.63155124E-02  1.44345617E+00  2.07822463E-02 -1.66824339E-16  1.70757730E-02
 -2.63155124E-02 -1.44345617E+00  2.07822463E-02  1.99206134E-16 -1.70757730E-02
  7.14659122E-17  6.79966360E-16 -3.23503114E-15  2.67824844E-01  2.29696547E-17
 -2.43053451E-15  4.60427845E-01  1.61022390E-16  1.12011501E-16 -1.12213617E-15
  1.88869373E-16 -2.37988466E-16  1.31498606E-16  1.11705355E-01 -1.00952763E-16
  9.44346874E-01 -6.87189916E-01 -7.38339237E-02 -4.95826314E-16 -1.52688736E-01
 -9.44346874E-01  6.87189916E-01 -7.38339237E-02  1.79344416E-16  1.52688736E-01
 -4.81043748E-02  2.55827085E-01 -3.17919726E-01 -1.60325270E-15  2.24154263E-18
 -3.29535377E-01 -2.17547972E-15 -6.69124720E-16  9.69252395E-03 -9.30053955E-02
  9.23993351E-02 -1.78294069E-03 -1.10547066E-16 -1.19813532E-15  2.36008926E-16
 -7.87757196E-01  5.47795402E-01  2.95887698E-01 -1.47103253E-16  5.94022289E-02
 -7.87757196E-01  5.47795402E-01 -2.95887698E-01  1.15537457E-15  5.94022289E-02
  3.41426102E-02 -1.47926371E-01 -5.63267465E-01 -1.46377118E-14 -9.95054304E-16
 -7.49576729E-01  3.08545303E-14  9.14629970E-16  1.26392896E+00 -4.26348442E-02
 -4.81405600E-02 -6.31822392E-02 -1.41134134E-16 -1.42859439E-15 -9.82834463E-17
  5.34293616E-01  8.74062351E-02  9.36037634E-02  8.76790773E-16  2.44760031E-01
  5.34293616E-01  8.74062351E-02 -9.36037634E-02 -3.65543644E-16  2.44760031E-01
 -1.04670797E-16  4.00125074E-16  5.54662486E-16  1.90838157E-15 -9.67744584E-01
  7.66700013E-16 -4.24516991E-15  1.02496882E+00 -1.24962048E-15 -2.68944683E-16
 -1.18541896E-16 -1.57180868E-16 -4.77869496E-16  4.81466124E-17  3.52870789E-03
 -1.25468378E-15 -2.29660558E-15 -2.95270324E-16  8.49534048E-03 -4.82177981E-16
  1.06489809E-16  2.12190491E-15 -5.93596732E-16  8.49534048E-03 -4.27213073E-17
 -1.26756466E-15 -3.25304832E-14  6.33796191E-14  7.34396165E-01  2.11805140E-15
 -1.83652594E-14 -1.76368796E+00 -2.78952507E-15  1.58307310E-14 -7.88714288E-15
 -8.12341126E-15 -7.54909179E-15 -1.62301883E-16  4.44739951E-02 -7.66808823E-17
 -3.78898819E-01 -8.24959087E-01 -3.02553894E-01  2.57358792E-15 -1.86657919E-01
  3.78898819E-01  8.24959087E-01 -3.02553894E-01 -1.89435398E-15  1.86657919E-01
  4.41721695E-03  6.37139311E-01 -1.06233775E+00  1.23601876E-14 -2.42059200E-16
  8.65944213E-02 -3.60095797E-14  2.87782522E-16 -5.52665478E-01  1.87536777E-01
  1.58290193E-01  1.55147107E-02 -4.51917394E-16  1.03571146E-16  2.38419926E-16
 -2.20358935E-01  2.74120916E-01 -3.06569728E-01  2.87483032E-15  5.18363518E-01
 -2.20358935E-01  2.74120916E-01  3.06569728E-01 -3.03457588E-15  5.18363518E-01
  3.08623505E-16  3.18656696E-15 -8.74989191E-15 -1.73721984E-15  1.37114188E-15
  2.27135254E-16  5.63333189E-15  1.26099870E-15  5.80615040E-15  2.07807686E-16
 -2.49019622E-16  1.41780135E-15 -1.31369521E-01  6.31448956E-17 -1.08001315E-16
  5.35669101E-15  3.39886302E-15  5.27532684E-15  6.85582461E-01 -3.12524047E-15
  2.03601464E-15 -2.16270161E-15 -1.09921423E-15 -6.85582461E-01 -2.99886097E-15
  1.30302457E-16  1.87485850E-16  9.97268572E-16 -4.69788756E-16 -1.94834583E-02
  2.56194944E-17 -1.93197827E-15 -6.33734306E-01 -1.31371096E-15  9.16465151E-16
 -1.56350577E-16 -2.15788197E-17 -4.71909267E-16  4.08277475E-16 -1.60843003E-01
 -1.20311541E-15 -9.78492610E-16  7.39057347E-16  7.66959683E-01 -2.80021577E-15
  1.36547008E-16  1.08727197E-16  2.53604026E-15  7.66959683E-01  2.00419888E-15
 -9.08678608E-02 -1.31229795E+00  3.20214136E+00 -1.78420442E-14 -2.12685917E-16
  1.37885967E-02  9.41574866E-15 -7.58880216E-17 -1.10237287E+00 -2.73758120E-01
 -1.09222458E-01 -3.70089436E-01 -9.30787215E-16  3.58977416E-15 -2.61258141E-17
 -8.27623855E-01 -3.79067224E-01 -3.31663302E-01  3.65041622E-15  1.57491950E-01
 -8.27623855E-01 -3.79067224E-01  3.31663302E-01 -3.27789334E-15  1.57491950E-01
 -2.42148703E-15 -3.66470109E-14  8.86516879E-14 -1.02001424E-02 -1.79911774E-17
  5.30102877E-16  9.00963455E-01 -2.36653416E-15 -3.23622135E-14 -8.69945162E-15
 -1.27431850E-15 -1.11767737E-14 -5.07967898E-16  2.93911692E-02 -9.32087713E-16
  3.87392864E-01  9.14492234E-02 -4.71580016E-01  4.02972859E-15  6.93251727E-01
 -3.87392864E-01 -9.14492234E-02 -4.71580016E-01  1.99775076E-15 -6.93251727E-01
  1.87956339E-15 -8.02307044E-14 -1.25267244E-13  8.38594232E-01  5.01242578E-16
  1.08800715E-13  1.52335559E-01 -7.08281630E-16  2.97246008E-14  4.62529297E-15
 -4.59373824E-14 -1.15012766E-14  1.15196252E-15  1.38384369E-01 -2.57285937E-16
  2.94681595E-01  3.30104133E-01  7.24333716E-01 -6.14853511E-16  5.54765725E-01
 -2.94681595E-01 -3.30104133E-01  7.24333716E-01  3.30053083E-16 -5.54765725E-01
  1.41552718E-02 -4.80979799E-01 -8.94160994E-01 -1.22306998E-13  3.03734977E-16
  6.93413434E-01 -2.41724762E-14 -2.04553842E-16  2.27458264E-01  5.22414477E-02
 -3.37163963E-01 -4.70863077E-02 -8.76127046E-16 -2.83099238E-14  3.13331994E-17
  5.39257805E-01  1.76058053E-01  7.76408667E-01 -1.47174602E-16  5.51979506E-01
  5.39257805E-01  1.76058053E-01 -7.76408667E-01  6.45738315E-16  5.51979506E-01
  3.31546926E-16 -1.28097965E-15 -1.21412005E-15 -9.09460817E-17  1.16795135E-02
 -2.98466608E-16 -1.14417656E-15 -3.11489095E-01  1.24534600E-15  2.02549344E-15
  1.32343992E-15 -7.44637381E-16 -5.52259025E-14  1.86200237E-15  1.04271167E+00
 -3.16606135E-16 -5.33899505E-16 -3.39614542E-16  3.98172071E-01 -8.27220445E-16
  1.73933426E-15  2.91799648E-16 -1.26809561E-15  3.98172071E-01 -6.25900039E-16
 -3.26172566E-16  5.14296726E-16  4.50567564E-15  1.12660703E-15 -6.26471380E-18
 -6.39721335E-16 -2.10521834E-15  1.47287665E-14 -3.44500362E-15 -4.09341818E-15
 -2.86929153E-15  5.88662148E-15 -1.06604829E+00  1.78572053E-15 -5.45383977E-14
 -3.23611834E-15 -9.61337105E-16 -2.54499086E-15 -3.71214242E-01  1.04355521E-15
 -1.41004104E-15 -1.05501088E-16  3.37527328E-15  3.71214242E-01  1.38406158E-15
 -2.02284944E-02 -1.33078911E-01  5.73281639E-01  1.26158292E-16  1.90579789E-16
 -1.92472644E-02 -2.79714722E-15 -5.00168236E-16 -5.39096267E-01 -7.07935802E-01
 -4.06345284E-01  1.07015483E+00  6.44831478E-15  5.79188453E-15  1.63176893E-15
 -3.06863605E-01 -3.94151732E-02 -3.53109473E-01  3.18279911E-15  3.14427934E-01
 -3.06863605E-01 -3.94151732E-02  3.53109473E-01 -1.52917040E-15  3.14427934E-01
 -8.30065865E-02 -8.69537960E-02  2.31210992E+00 -4.44884908E-14 -1.96227776E-16
 -3.98758083E-01 -9.92177728E-14  8.58017430E-16 -9.16291296E-01  8.68297195E-01
 -1.13174699E+00  6.77483650E-02  5.82774546E-16  1.36083252E-13  2.22472245E-17
 -1.22432626E+00 -1.97212348E-01 -6.13005060E-01 -7.22145193E-16 -4.88880106E-01
 -1.22432626E+00 -1.97212348E-01  6.13005060E-01 -6.57554302E-16 -4.88880106E-01
  1.06438166E-14  1.79219693E-14 -3.04070030E-13 -4.68165890E-01 -1.93129847E-16
  4.92626306E-14 -1.14393907E+00  1.44843257E-15  1.20066812E-13 -8.72187808E-14
  1.25496389E-13 -7.52600071E-15  1.61586235E-15  1.32540321E+00 -1.70728399E-15
 -1.08544367E+00 -2.88481383E-01 -6.05718742E-01 -1.01421966E-15 -4.93804049E-01
  1.08544367E+00  2.88481383E-01 -6.05718742E-01 -1.99732063E-15  4.93804049E-01
 -4.08259411E-01  1.65449008E+00  1.44553448E+00 -2.40814896E-15  5.39175496E-16
  1.84158821E-01  1.40444542E-15 -1.38164934E-15  2.25754522E-02 -1.59302555E+00
 -1.36025813E+00 -1.48336962E+00  5.14193966E-16  2.25740532E-15  1.18280082E-15
  2.45780133E-01 -1.86280620E-01  2.12925532E-01  7.71290872E-16  1.81506260E-01
  2.45780133E-01 -1.86280620E-01 -2.12925532E-01  4.92319324E-16  1.81506260E-01
Alpha Orbital Energies                     R   N=          25
 -2.05519329E+01 -1.33671984E+00 -6.99259941E-01 -5.66851516E-01 -4.93491091E-01
  1.83278121E-01  2.56040990E-01  7.88643892E-01  8.53913131E-01  1.15906008E+00
  1.20002802E+00  1.25309816E+00  1.42332529E+00  1.47608904E+00  1.67420935E+00
  1.74579145E+00  1.93435010E+00  2.45137370E+00  2.46602531E+00  3.28507662E+00
  3.33797990E+00  3.50945854E+00  3.86053542E+00  4.14687321E+00  5.96474287E+00
Total SCF Density                          R   N=         325
  2.07997761E+00 -1.67591430E-01  4.34049251E-01 -2.03474407E-01  4.36738082E-01
  5.39649847E-01 -4.73941681E-16 -7.69899041E-16  9.31121049E-16  4.80341940E-01
 -1.41776295E-16 -6.23137632E-17  1.74284073E-16 -1.72435138E-16  7.97112871E-01
 -4.82586645E-02  9.74595399E-02  3.39959545E-01 -1.21396921E-16 -3.58655962E-17
  6.08512528E-01  1.82097169E-15 -1.06450330E-15 -5.05922220E-16  2.17618439E-01
  8.23005190E-16 -6.55022749E-16  9.85918177E-02 -2.71449780E-16 -3.05498368E-16
 -1.34794713E-16 -3.71588482E-16  6.25707653E-01 -1.27862949E-16  5.39007376E-16
  4.91160137E-01 -5.60793308E-02  1.23327761E-01  2.75673692E-01 -8.61655222E-16
 -1.19895427E-16  3.95231022E-01 -8.70541070E-16 -1.93160681E-16  2.65316802E-01
 -3.97442756E-03  3.97683092E-03  2.15913442E-03  2.99166125E-16  1.25442055E-16
 -3.66739287E-03  1.30203162E-16  9.67696591E-17 -1.72497066E-03  7.50427747E-05
 -3.23852921E-03  1.78399201E-03  4.35860944E-03 -2.72586889E-16 -1.05228910E-16
  6.52814054E-03 -1.33145311E-16 -8.37809324E-17  4.34816467E-03 -2.82375764E-05
  7.42886162E-05 -5.30732247E-04 -3.69210049E-03 -1.49219233E-02  4.31733076E-16
  8.45573623E-17 -2.80971298E-02  2.19975380E-16  7.08302763E-17 -1.81310893E-02
  1.81215203E-04 -2.97035577E-04  1.30188136E-03  5.77322111E-16 -5.32514378E-18
 -2.95775928E-17 -2.30706078E-17 -5.85688522E-17 -3.88661821E-17 -1.04521160E-17
 -4.59746423E-17 -2.56285035E-17 -4.74948071E-19 -1.11074404E-18  1.09762985E-18
  1.71733924E-31  1.09300435E-16  9.72099452E-17  1.26218083E-16 -2.62545282E-02
 -1.24978701E-16  3.18044977E-16 -1.18945880E-02 -8.51922155E-17  2.50013178E-16
 -1.83091001E-17  1.81158915E-17 -3.81002647E-17  1.26099321E-18  1.43501992E-03
  2.33769150E-16  4.68182502E-17  7.13432304E-17  8.52895437E-18 -2.29529739E-02
  9.55780652E-17 -2.20840336E-17 -1.80173372E-02  6.89242558E-17 -4.16707555E-18
  3.79623688E-18 -7.04492685E-18  1.68649809E-18  3.40399617E-18  6.60934014E-04
 -4.95872756E-02  1.06875198E-01 -7.82903340E-03 -3.21308567E-01  5.25134250E-16
 -2.56271967E-01 -1.45568527E-01  5.28896168E-16 -1.45217682E-01  3.17472963E-03
 -2.47203528E-03  1.21348680E-02  2.82979096E-17  1.75620827E-02 -4.84122669E-17
  3.75235362E-01  1.99169459E-03 -3.42055395E-03 -2.31840230E-02 -8.80807247E-02
  3.33416662E-18 -4.86527963E-02 -3.99048849E-02  5.14190455E-17 -3.09728438E-02
  3.41152353E-04 -5.13995784E-04  2.25514814E-03  7.29131533E-18  4.81431597E-03
 -8.02078484E-18  8.09552266E-02  2.00871015E-02 -1.14346878E-02  2.29814952E-02
  4.79310226E-03 -2.28501461E-02  9.12634042E-18 -3.94177746E-02 -1.03522360E-02
  8.44995178E-18 -2.13964965E-02  5.61315442E-04 -3.67100102E-04  1.88071521E-03
  2.71749101E-18  1.24894322E-03 -4.88034994E-18  4.22635800E-02  7.64803360E-03
  5.69689813E-03  7.63388217E-16  6.69893486E-17  4.28281157E-17  4.01811969E-17
  3.91882265E-02 -4.46942113E-17  6.25058821E-17  3.07614820E-02 -2.34545283E-17
  6.26842115E-18 -6.46189615E-18  5.31952359E-18 -2.87940332E-18 -8.80387149E-18
 -1.12843033E-03  3.32478410E-17 -4.60013160E-18  4.96925243E-18  1.92659929E-03
 -9.99500781E-03  2.02017294E-02  2.09695470E-02 -3.20022759E-02  9.34752432E-17
  6.01508826E-03 -1.44985993E-02  7.73452990E-17  6.66860312E-03  1.76306551E-04
  1.01104843E-04 -2.37954737E-04  5.76016219E-19  1.74918030E-03 -8.88121104E-19
  2.56888508E-02  5.58856325E-03  2.48321231E-03  3.60938894E-18  3.07841851E-03
 -4.95872756E-02  1.06875198E-01 -7.82903340E-03  3.21308567E-01 -4.28283777E-16
 -2.56271967E-01  1.45568527E-01 -5.35545513E-16 -1.45217682E-01  3.17472963E-03
 -2.47203528E-03  1.21348680E-02 -2.56670297E-18 -1.75620827E-02 -1.61908826E-17
 -5.46217326E-02 -3.68820435E-02  1.16939082E-02  5.14722608E-17 -1.71248391E-02
  3.75235362E-01  1.99169459E-03 -3.42055395E-03 -2.31840230E-02  8.80807247E-02
 -4.12338559E-16 -4.86527963E-02  3.99048849E-02 -3.61506839E-16 -3.09728438E-02
  3.41152353E-04 -5.13995784E-04  2.25514814E-03 -1.16964002E-18 -4.81431597E-03
  5.25551132E-18 -3.68820435E-02 -1.22157787E-02 -7.32069249E-04 -7.19059644E-18
 -6.14800781E-03  8.09552266E-02  2.00871015E-02  1.14346878E-02 -2.29814952E-02
 -4.79310226E-03 -2.28501461E-02  1.64188663E-16  3.94177746E-02 -1.03522360E-02
  1.50072121E-16  2.13964965E-02 -5.61315442E-04  3.67100102E-04 -1.88071521E-03
 -5.22526484E-19  1.24894322E-03 -4.49330101E-19 -1.16939082E-02  7.32069249E-04
 -3.52290858E-03 -1.07805126E-18  5.61521539E-04 -4.22635800E-02 -7.64803360E-03
  5.69689813E-03 -7.71832904E-17  2.67735482E-16  4.10737001E-16  2.64426619E-16
  3.91882265E-02  3.75029965E-16  1.64100048E-16  3.07614820E-02  2.68988705E-16
  6.14160089E-18 -8.08188302E-19 -1.28831539E-17 -2.87940332E-18 -2.10606771E-17
 -1.12843033E-03 -2.41288642E-16 -7.78099174E-17 -2.22745967E-17  1.92659929E-03
 -2.29192012E-19  7.69386272E-17  1.83977897E-18  4.83082691E-18  1.92659929E-03
 -9.99500781E-03  2.02017294E-02  2.09695470E-02  3.20022759E-02 -1.85261474E-16
  6.01508826E-03  1.44985993E-02 -1.72931434E-16  6.66860312E-03  1.76306551E-04