Jobname.Temp
SP        R                             cc-pVDZ             
Number of atoms                            I                3
Charge                                     I                0
Multiplicity                               I                1
Number of electrons                        I               10
Number of alpha electrons                  I                5
Number of beta electrons                   I                5
Atomic numbers                             I   N=           3
           8           1           1
Current cartesian coordinates              R   N=           9
  0.00000000E+00  0.00000000E+00  2.21664874E-01 -1.43090062E+00 -8.76173933E-17
 -8.86659498E-01  1.43090062E+00  8.76173933E-17 -8.86659498E-01
Nuclear charges                            R   N=           3
  8.00000000E+00  1.00000000E+00  1.00000000E+00
Number of basis functions                  I               24
Number of contracted shells                I               12
Number of primitive shells                 I               30
Highest angular momentum                   I                2
Largest degree of contraction              I                7
Shell types                                I   N=          12
           0           0           0           1           1          -2
           0           0           1           0           0           1
Number of primitives per shell             I   N=          12
           7           7           1           3           1           1
           3           1           1           3           1           1
Shell to atom map                          I   N=          12
           1           1           1           1           1           1
           2           2           2           3           3           3
Primitive exponents                        R   N=          30
  1.17200000E+04  1.75900000E+03  4.00800000E+02  1.13700000E+02  3.70300000E+01
  1.32700000E+01  5.02500000E+00  1.17200000E+04  1.75900000E+03  1.13700000E+02
  3.70300000E+01  1.32700000E+01  5.02500000E+00  1.01300000E+00  3.02300000E-01
  1.77000000E+01  3.85400000E+00  1.04600000E+00  2.75300000E-01  1.18500000E+00
  1.30100000E+01  1.96200000E+00  4.44600000E-01  1.22000000E-01  7.27000000E-01
  1.30100000E+01  1.96200000E+00  4.44600000E-01  1.22000000E-01  7.27000000E-01
Contraction coefficients                   R   N=          30
  7.11859989E-04  5.48520206E-03  2.79099247E-02  1.05133208E-01  2.84002488E-01
  4.51673950E-01  2.73208124E-01 -3.13436252E-07 -6.17665315E-05 -4.15726173E-03
 -1.41000865E-02 -1.26138482E-01 -1.09614593E-01  1.09868833E+00  1.00000000E+00
  6.26791663E-02  3.33536566E-01  7.41239642E-01  1.00000000E+00  1.00000000E+00
  3.34987264E-02  2.34800801E-01  8.13682958E-01  1.00000000E+00  1.00000000E+00
  3.34987264E-02  2.34800801E-01  8.13682958E-01  1.00000000E+00  1.00000000E+00
Coordinates of each shell                  R   N=          36
  0.00000000E+00  0.00000000E+00  2.21664874E-01  0.00000000E+00  0.00000000E+00
  2.21664874E-01  0.00000000E+00  0.00000000E+00  2.21664874E-01  0.00000000E+00
  0.00000000E+00  2.21664874E-01  0.00000000E+00  0.00000000E+00  2.21664874E-01
  0.00000000E+00  0.00000000E+00  2.21664874E-01 -1.43090062E+00 -8.76173933E-17
 -8.86659498E-01 -1.43090062E+00 -8.76173933E-17 -8.86659498E-01 -1.43090062E+00
 -8.76173933E-17 -8.86659498E-01  1.43090062E+00  8.76173933E-17 -8.86659498E-01
  1.43090062E+00  8.76173933E-17 -8.86659498E-01  1.43090062E+00  8.76173933E-17
 -8.86659498E-01
Overlap Matrix                             R   N=         300
  1.00000000E+00  2.14476014E-01  1.00000000E+00  1.83816867E-01  7.92109402E-01
  1.00000000E+00  0.00000000E+00  0.00000000E+00  0.00000000E+00  1.00000000E+00
  0.00000000E+00  0.00000000E+00  0.00000000E+00  0.00000000E+00  1.00000000E+00
 -1.65345003E-17 -1.81973103E-17 -2.82447930E-17  0.00000000E+00  0.00000000E+00
  1.00000000E+00  0.00000000E+00  0.00000000E+00  0.00000000E+00  5.01271483E-01
  0.00000000E+00  0.00000000E+00  1.00000000E+00  0.00000000E+00  0.00000000E+00
  0.00000000E+00  0.00000000E+00  5.01271483E-01  0.00000000E+00  0.00000000E+00
  1.00000000E+00  4.12883618E-18 -2.56129517E-17 -2.90784214E-17  0.00000000E+00
  0.00000000E+00  5.01271483E-01  0.00000000E+00  0.00000000E+00  1.00000000E+00
  0.00000000E+00  0.00000000E+00  0.00000000E+00  0.00000000E+00  0.00000000E+00
  1.61372145E-17  0.00000000E+00  0.00000000E+00 -7.55290899E-17  1.00000000E+00
  0.00000000E+00  0.00000000E+00  0.00000000E+00  1.39752377E-17  0.00000000E+00
  0.00000000E+00 -6.54101106E-17  0.00000000E+00  0.00000000E+00  0.00000000E+00
  1.00000000E+00  0.00000000E+00  0.00000000E+00  0.00000000E+00  0.00000000E+00
  1.39752377E-17  0.00000000E+00  0.00000000E+00 -6.54101106E-17  0.00000000E+00
  0.00000000E+00  0.00000000E+00  1.00000000E+00  2.95546284E-18  3.53361838E-17
  4.56638999E-17  0.00000000E+00  0.00000000E+00 -1.23483819E-34  0.00000000E+00
  0.00000000E+00 -1.42481715E-33  2.47902802E-17  0.00000000E+00  0.00000000E+00
  1.00000000E+00  0.00000000E+00  0.00000000E+00  0.00000000E+00  0.00000000E+00
  0.00000000E+00  0.00000000E+00  0.00000000E+00  0.00000000E+00  0.00000000E+00
  0.00000000E+00  0.00000000E+00  0.00000000E+00  0.00000000E+00  1.00000000E+00
  4.97985668E-02  2.99065204E-01  4.96859815E-01 -2.22852505E-01 -1.36457804E-17
 -1.72613569E-01 -4.92019529E-01 -3.01275071E-17 -3.81100705E-01  1.44093094E-02
  1.93410398E-01  1.18429712E-17  1.24851111E-01  1.52898514E-17  1.00000000E+00
  6.49069385E-02  3.55068357E-01  6.47846960E-01 -8.39344408E-02 -5.13950221E-18
 -6.50126116E-02 -3.09745915E-01 -1.89664672E-17 -2.39918092E-01  1.50733686E-03
  2.02323800E-02  1.23887597E-18  1.30604929E-02  1.59944908E-18  6.84860251E-01
  1.00000000E+00  8.28595469E-02  3.56823401E-01  3.09561969E-01 -1.64026127E-01
 -2.20255571E-17 -2.78614335E-01  7.13616850E-02 -1.95993380E-17 -2.47923651E-01
  1.71943300E-01  1.64586554E-01  2.20036247E-17 -1.94776324E-02  1.30112133E-17
  2.98375835E-16  2.22505918E-16  1.00000000E+00  5.07368395E-18  2.18491318E-17
  1.89552037E-17 -2.20255571E-17  1.95678518E-01 -1.70602077E-17 -1.95993380E-17
  3.91443166E-01 -1.51809453E-17  1.05284906E-17  2.20036247E-17 -1.94759907E-01
  2.96004097E-17 -2.51444504E-01 -4.13191221E-33  1.23515596E-32  0.00000000E+00
  1.00000000E+00  6.41800373E-02  2.76382626E-01  2.39775614E-01 -2.78614335E-01
 -1.70602077E-17 -2.01261669E-02 -2.47923651E-01 -1.51809453E-17  1.99410385E-01
 -2.04152933E-01  2.68923944E-02  1.64668424E-18  1.79673231E-01  2.20036247E-17
  0.00000000E+00  0.00000000E+00  0.00000000E+00  0.00000000E+00  1.00000000E+00
  4.97985668E-02  2.99065204E-01  4.96859815E-01  2.22852505E-01  1.36457804E-17
 -1.72613569E-01  4.92019529E-01  3.01275071E-17 -3.81100705E-01  1.44093094E-02
 -1.93410398E-01 -1.18429712E-17  1.24851111E-01  1.52898514E-17  1.20995059E-01
  3.07441955E-01  1.59674981E-01  9.77727271E-18  0.00000000E+00  1.00000000E+00
  6.49069385E-02  3.55068357E-01  6.47846960E-01  8.39344408E-02  5.13950221E-18
 -6.50126116E-02  3.09745915E-01  1.89664672E-17 -2.39918092E-01  1.50733686E-03
 -2.02323800E-02 -1.23887597E-18  1.30604929E-02  1.59944908E-18  3.07441955E-01
  6.06782854E-01  1.75152006E-01  1.07249672E-17  0.00000000E+00  6.84860251E-01
  1.00000000E+00 -8.28595469E-02 -3.56823401E-01 -3.09561969E-01 -1.64026127E-01
 -2.20255571E-17  2.78614335E-01  7.13616850E-02 -1.95993380E-17  2.47923651E-01
 -1.71943300E-01  1.64586554E-01  2.20036247E-17  1.94776324E-02 -1.30112133E-17
 -1.59674981E-01 -1.75152006E-01 -2.52379056E-01 -1.85731722E-17  2.35345547E-17
 -2.98375835E-16 -2.22505918E-16  1.00000000E+00 -5.07368395E-18 -2.18491318E-17
 -1.89552037E-17 -2.20255571E-17  1.95678518E-01  1.70602077E-17 -1.95993380E-17
  3.91443166E-01  1.51809453E-17 -1.05284906E-17  2.20036247E-17 -1.94759907E-01
 -2.96004097E-17  2.51444504E-01 -9.77727271E-18 -1.07249672E-17 -1.85731722E-17
  5.09438639E-02  1.44107585E-33  4.13191221E-33 -1.23515596E-32  0.00000000E+00
  1.00000000E+00  6.41800373E-02  2.76382626E-01  2.39775614E-01  2.78614335E-01
  1.70602077E-17 -2.01261669E-02  2.47923651E-01  1.51809453E-17  1.99410385E-01
 -2.04152933E-01 -2.68923944E-02 -1.64668424E-18  1.79673231E-01  2.20036247E-17
  0.00000000E+00  0.00000000E+00 -2.35345547E-17 -1.44107585E-33  5.09438639E-02
  0.00000000E+00  0.00000000E+00  0.00000000E+00  0.00000000E+00  1.00000000E+00
Core Hamiltonian Matrix                    R   N=         300
 -3.30440427E+01 -6.61306869E+00 -9.72061268E+00 -5.83997113E+00 -7.64420522E+00
 -7.61917467E+00  0.00000000E+00  0.00000000E+00  0.00000000E+00 -8.56189171E+00
  0.00000000E+00  0.00000000E+00  0.00000000E+00  0.00000000E+00 -8.45575349E+00
  2.81386468E-02  1.83345776E-01  1.77838409E-01  0.00000000E+00  0.00000000E+00
 -8.51943108E+00  0.00000000E+00  0.00000000E+00  0.00000000E+00 -3.84827461E+00
  0.00000000E+00  0.00000000E+00 -4.83207618E+00  0.00000000E+00  0.00000000E+00
  0.00000000E+00  0.00000000E+00 -3.75129208E+00  0.00000000E+00  0.00000000E+00
 -4.60646762E+00  4.08170495E-03  1.18015426E-01  2.42181191E-01  0.00000000E+00
  0.00000000E+00 -3.80947672E+00  0.00000000E+00  0.00000000E+00 -4.74182140E+00
 -2.53223956E-04 -9.56459547E-03 -1.29485854E-02  0.00000000E+00  0.00000000E+00
  1.47591016E-01  0.00000000E+00  0.00000000E+00  1.27147046E-01 -4.34392762E+00
  0.00000000E+00  0.00000000E+00  0.00000000E+00  2.11261538E-01  0.00000000E+00
  0.00000000E+00  2.20420077E-01  0.00000000E+00  0.00000000E+00  0.00000000E+00
 -4.48970210E+00  0.00000000E+00  0.00000000E+00  0.00000000E+00  0.00000000E+00
  1.23428108E-01  0.00000000E+00  0.00000000E+00  1.04309989E-01  0.00000000E+00
  0.00000000E+00  0.00000000E+00 -4.29501101E+00 -2.19408796E-03 -8.28735327E-02
 -1.12194501E-01  0.00000000E+00  0.00000000E+00  4.39167148E-02  0.00000000E+00
  0.00000000E+00  5.80550440E-02  4.73260993E-02  0.00000000E+00  0.00000000E+00
 -4.37462985E+00  0.00000000E+00  0.00000000E+00  0.00000000E+00  0.00000000E+00
  0.00000000E+00  0.00000000E+00  0.00000000E+00  0.00000000E+00  0.00000000E+00
  0.00000000E+00  0.00000000E+00  0.00000000E+00  0.00000000E+00 -4.33127102E+00
 -1.58539439E+00 -2.84868209E+00 -3.46344828E+00  1.76125348E+00 -1.06670349E-17
  1.40599636E+00  2.52523241E+00 -2.06978956E-17  2.01028977E+00 -1.18399789E-01
 -1.21502126E+00  1.84943272E-17 -7.84684968E-01  2.38770751E-17 -5.13155569E+00
 -2.06415113E+00 -3.36236357E+00 -4.21814188E+00  6.53849583E-01 -2.42156037E-18
  5.85794146E-01  1.34050092E+00 -7.12880464E-18  1.19179436E+00 -3.25646340E-02
 -1.63605730E-01  8.59933686E-19 -1.47222273E-01  1.11021618E-18 -3.56953300E+00
 -4.21696154E+00 -2.63458495E+00 -3.47569270E+00 -2.89285059E+00  1.28658505E+00
 -3.96758915E-17  2.20604289E+00  8.02808041E-02 -2.22755486E-17  1.59404782E+00
 -9.58851908E-01 -7.75961092E-01  5.99610236E-17  1.61975926E-01  4.93307512E-17
 -1.23322080E+00 -1.05747183E+00 -4.21800625E+00  2.10129131E-18  2.13504757E-17
  1.45745295E-17 -3.96758915E-17 -1.48569373E+00 -3.07315245E-17 -2.22755486E-17
 -1.90711101E+00 -1.72538421E-17  2.06802292E-17  5.99610236E-17  1.05749572E+00
  6.67881416E-17  1.33423237E+00  0.00000000E+00  0.00000000E+00  0.00000000E+00
 -3.38214569E+00 -2.03940198E+00 -2.66235165E+00 -2.18793544E+00  2.13830902E+00
 -3.07315245E-17  1.97931615E-01  1.51387418E+00 -1.72538421E-17 -7.21489263E-01
  1.09103550E+00 -7.73989730E-02  1.83618173E-17 -9.01411668E-01  5.99610236E-17
 -8.95722256E-01 -7.63435346E-01 -6.13342628E-01  0.00000000E+00 -3.85721892E+00
 -1.58539439E+00 -2.84868209E+00 -3.46344828E+00 -1.76125348E+00  1.06670349E-17
  1.40599636E+00 -2.52523241E+00  2.06978956E-17  2.01028977E+00 -1.18399789E-01
  1.21502126E+00 -1.84943272E-17 -7.84684968E-01  2.38770751E-17 -9.40921931E-01
 -1.88636103E+00 -1.29283850E+00  9.02747449E-20 -2.15049987E-01 -5.13155569E+00
 -2.06415113E+00 -3.36236357E+00 -4.21814188E+00 -6.53849583E-01  2.42156037E-18
  5.85794146E-01 -1.34050092E+00  7.12880464E-18  1.19179436E+00 -3.25646340E-02
  1.63605730E-01 -8.59933686E-19 -1.47222273E-01  1.11021618E-18 -1.88636103E+00
 -2.96277899E+00 -1.48693848E+00  3.68487481E-18 -4.70107646E-01 -3.56953300E+00
 -4.21696154E+00  2.63458495E+00  3.47569270E+00  2.89285059E+00  1.28658505E+00
 -3.96758915E-17 -2.20604289E+00  8.02808041E-02 -2.22755486E-17 -1.59404782E+00
  9.58851908E-01 -7.75961092E-01  5.99610236E-17 -1.61975926E-01 -4.93307512E-17
  1.29283850E+00  1.48693848E+00  1.98598644E+00 -7.06149203E-18  3.26847490E-01
  1.23322080E+00  1.05747183E+00 -4.21800625E+00 -2.10129131E-18 -2.13504757E-17
 -1.45745295E-17 -3.96758915E-17 -1.48569373E+00  3.07315245E-17 -2.22755486E-17
 -1.90711101E+00  1.72538421E-17 -2.06802292E-17  5.99610236E-17  1.05749572E+00
 -6.67881416E-17 -1.33423237E+00 -9.02747449E-20 -3.68487481E-18 -7.06149203E-18
 -3.52470067E-01  0.00000000E+00  0.00000000E+00  0.00000000E+00  0.00000000E+00
 -3.38214569E+00 -2.03940198E+00 -2.66235165E+00 -2.18793544E+00 -2.13830902E+00
  3.07315245E-17  1.97931615E-01 -1.51387418E+00  1.72538421E-17 -7.21489263E-01
  1.09103550E+00  7.73989730E-02 -1.83618173E-17 -9.01411668E-01  5.99610236E-17
 -2.15049987E-01 -4.70107646E-01 -3.26847490E-01  0.00000000E+00 -4.72138079E-01
 -8.95722256E-01 -7.63435346E-01  6.13342628E-01  0.00000000E+00 -3.85721892E+00
Number of independent functions            I               24
Alpha MO coefficients                      R   N=         576
  9.97268171E-01  1.52439514E-02 -2.66875940E-03 -1.19154270E-15  1.69260650E-17
 -1.76169480E-03 -2.19084553E-15 -1.51133631E-16  4.85386097E-04  1.09641432E-05
  2.20995406E-15 -4.61628027E-17  1.37220926E-04  2.68822749E-16 -2.38682007E-04
  4.21406454E-04 -5.70112951E-04  3.58691902E-16 -4.81205517E-04 -2.38682007E-04
  4.21406454E-04  5.70112951E-04 -3.43921598E-16 -4.81205517E-04  2.03631850E-01
 -4.41488037E-01 -3.76043601E-01 -1.52947529E-16  1.36275109E-16  7.87615517E-02
  3.29046375E-15 -1.04131132E-16 -1.30269504E-02 -1.24468287E-03 -1.47099558E-16
 -1.06144847E-17 -3.00781170E-03  4.60923596E-17 -1.93407897E-01 -1.00957728E-02
 -3.72924156E-02  5.68969453E-17 -2.04802365E-02 -1.93407897E-01 -1.00957728E-02
  3.72924156E-02  1.49405331E-17 -2.04802365E-02 -5.09625597E-16  1.29414637E-15
  2.23938025E-15  4.89929577E-01 -5.93341835E-16  3.65285855E-15  2.22066947E-01
 -3.79782348E-16  2.23508554E-15 -2.61547547E-16 -2.67960142E-02  8.67882691E-18
  2.84241166E-16 -2.97669843E-17 -3.27870266E-01 -8.98890509E-02 -2.33106121E-02
 -1.42907851E-16 -3.26653347E-02  3.27870266E-01  8.98890509E-02 -2.33106121E-02
 -5.78298684E-17  3.26653347E-02 -6.85279484E-02  1.49913394E-01  3.49742478E-01
 -2.88197076E-15 -6.64967658E-16  5.45396947E-01 -3.05758674E-15 -3.66494499E-16
  3.65300576E-01 -1.78717265E-02  5.36102850E-16  9.84684271E-18 -4.59448198E-03
 -3.49889910E-17 -2.06445058E-01 -4.04217773E-02 -3.17623935E-02 -1.69870917E-16
  7.51659739E-03 -2.06445058E-01 -4.04217773E-02  3.17623935E-02 -1.51446625E-16
  7.51659739E-03  6.72029398E-17 -2.26103678E-16 -3.31802554E-16 -2.93084976E-16
 -6.31190786E-01 -6.37701008E-16 -4.71209608E-16 -4.95670025E-01 -3.09079783E-16
 -4.27955355E-17  8.87823064E-17  1.82017613E-02 -6.55213213E-17 -6.67264495E-17
  3.41124955E-16 -1.18040692E-16 -2.23098120E-17 -3.10608367E-02 -7.84250627E-17
 -1.17534547E-16  4.42838468E-16 -9.88407535E-17 -3.10608367E-02  4.32506994E-17
  8.39260939E-02 -7.16454699E-02 -1.00220753E+00 -1.48043974E-15 -4.98388781E-17
  1.90708607E-01 -7.29777893E-15  1.19994682E-17  3.37240285E-01 -7.53597451E-03
  4.82971057E-16 -2.87415798E-17 -9.96033433E-03  4.82873319E-18  5.90130629E-02
  8.29075317E-01  1.75173207E-02  9.29683772E-17  1.63113901E-02  5.90130629E-02
  8.29075317E-01 -1.75173207E-02  3.22553670E-17  1.63113901E-02 -6.14380266E-16
  5.92163120E-15 -4.03265658E-15 -2.83322117E-01 -1.86883330E-16 -1.93889946E-15
 -6.70948103E-01  2.00908777E-17  2.73580451E-15  2.23541090E-16  2.12253530E-02
  4.52917411E-17 -6.98789577E-16  1.11007093E-16 -2.60770707E-02 -1.44365802E+00
 -2.08002273E-02 -9.81139767E-17 -1.71196912E-02  2.60770707E-02  1.44365802E+00
 -2.08002273E-02  2.06247189E-16  1.71196912E-02  5.79915313E-16 -3.56610458E-15
  1.25689487E-15 -2.67993610E-01 -2.05604631E-17  3.37200976E-15 -4.60426623E-01
 -2.33523830E-16  1.86439804E-15 -2.23156617E-16 -1.11686181E-01  2.03320607E-17
  8.94801817E-16  6.95557829E-17 -9.44299037E-01  6.86933687E-01  7.38709691E-02
  2.28189854E-16  1.52710460E-01  9.44299037E-01 -6.86933687E-01  7.38709691E-02
  3.61256097E-16 -1.52710460E-01 -4.79054984E-02  2.56170241E-01 -3.20218309E-01
 -3.20409146E-15 -1.18633231E-15 -3.29434284E-01 -4.57476089E-16  9.93065784E-16
  9.71100466E-03 -9.85660594E-04 -1.88810174E-15 -2.06089027E-16 -1.06977368E-01
  1.41799081E-17 -7.87706065E-01  5.48046613E-01  2.95764849E-01  8.44051986E-16
  5.93036162E-02 -7.87706065E-01  5.48046613E-01 -2.95764849E-01 -4.33919385E-16
  5.93036162E-02 -4.74968141E-02  1.14629011E-01  7.47837714E-01 -1.81302864E-14
 -5.16469758E-15  7.54421070E-01  4.03792547E-14  5.62984135E-15 -1.27865104E+00
  1.28214387E-02 -2.19571486E-15  6.65449772E-18 -6.75664052E-03  3.30832346E-17
 -5.46396860E-01 -1.12940478E-01 -8.41298561E-02 -3.50576634E-16 -2.51100003E-01
 -5.46396860E-01 -1.12940478E-01  8.41298561E-02  2.49067509E-16 -2.51100003E-01
  2.46508486E-16 -2.44813035E-16 -3.64460507E-15  3.43174808E-15 -9.67826747E-01
 -3.67916341E-15 -7.83715114E-15  1.02482527E+00  6.10878409E-15 -4.19598860E-16
  2.37906773E-16  3.48953177E-03 -2.17402019E-16 -4.19677316E-16  1.81466549E-15
 -3.25315011E-15 -1.71768572E-15  8.58942969E-03  9.19065426E-16  5.56334736E-15
  2.86891088E-15 -5.44734683E-16  8.58942969E-03  2.92584193E-15 -1.52937633E-15
  2.05190380E-14 -8.72544668E-15  7.34355534E-01  4.20925234E-15  1.76527264E-14
 -1.76367339E+00 -4.50633041E-15 -2.44290857E-14 -1.34801826E-16  4.44908520E-02
  1.15006244E-16 -5.48999009E-16  1.09544654E-16 -3.79056818E-01 -8.24839329E-01
 -3.02639961E-01 -3.32536451E-16 -1.86653229E-01  3.79056818E-01  8.24839329E-01
 -3.02639961E-01  2.23638724E-17  1.86653229E-01 -3.22072071E-02  5.29960021E-01
 -5.05027079E-01 -4.48883660E-15  1.51205055E-15  1.32617529E-01  3.99770212E-15
 -1.26530699E-15 -7.40407738E-01 -1.17316578E-01  7.93735824E-16  2.45997228E-18
  4.82321417E-03  3.70625083E-16 -3.33725008E-01  2.09217955E-01 -3.29885737E-01
 -2.09243647E-15  5.45130518E-01 -3.33725008E-01  2.09217955E-01  3.29885737E-01
  1.05707830E-15  5.45130518E-01 -3.86606772E-17  1.86582411E-16 -8.62764872E-16
 -9.33711451E-16 -3.16361073E-15 -9.67957546E-16  7.58804006E-16 -1.18881317E-16
  2.95979980E-15  4.51904813E-16 -3.46854008E-17 -5.82307700E-16 -1.46155293E-16
  1.31342000E-01  4.96205858E-16  4.61321155E-16  7.68576476E-16 -6.85592044E-01
 -1.62308445E-15  1.07129426E-15 -4.38529851E-16 -1.50187791E-15  6.85592044E-01
 -9.08527181E-16 -1.00245600E-16 -5.40060686E-16  8.83023414E-16  3.72101098E-17
  1.93742048E-02 -6.33695655E-16  9.21447326E-16  6.33904635E-01  3.00411471E-16
  2.96376840E-16 -3.83988240E-16  1.60807403E-01 -1.76646274E-17  1.29001068E-15
  2.77582953E-16  2.23105549E-16  1.70242761E-16 -7.66970835E-01  1.85871602E-16
 -5.64059779E-16 -3.33387144E-16  6.67701883E-17 -7.66970835E-01 -1.25100650E-15
  1.91529235E-02  1.59893609E+00 -3.03403213E+00 -7.56023108E-15 -4.67104369E-16
  1.09350141E-01 -3.61668787E-14  3.82215733E-16  9.67832206E-01  1.14124869E-01
  3.21188669E-15  2.88907693E-16  1.08179997E-01 -4.30507933E-17  8.28130467E-01
  3.87925309E-01  3.72827164E-01  4.32467761E-16 -2.29208690E-02  8.28130467E-01
  3.87925309E-01 -3.72827164E-01 -2.61833708E-16 -2.29208690E-02 -1.19223348E-15
 -9.91021858E-14  1.79266171E-13  1.02714584E-02  3.73550306E-16 -1.59479766E-15
 -9.01071599E-01 -1.63967134E-16 -5.62761365E-14 -7.00793471E-15 -2.93647204E-02
  2.47200659E-16 -9.47350161E-15 -6.10403910E-17 -3.87407460E-01 -9.14719920E-02
  4.71588735E-01 -6.76604061E-16 -6.93242681E-01  3.87407460E-01  9.14719920E-02
  4.71588735E-01 -3.49485937E-16  6.93242681E-01 -6.06266821E-15  9.21225313E-14
  1.07281971E-13 -8.38682083E-01 -1.82948383E-16 -8.91832535E-14 -1.52314614E-01
  3.28733358E-16 -2.14506029E-14 -5.80452774E-15 -1.38361626E-01  6.23734778E-16
 -2.64511661E-14 -5.00642906E-17 -2.94701301E-01 -3.30064062E-01 -7.24302471E-01
  6.87699569E-16 -5.54792173E-01  2.94701301E-01  3.30064062E-01 -7.24302471E-01
 -7.23541073E-16  5.54792173E-01  4.44264865E-02 -7.29235571E-01 -7.93490045E-01
 -1.06412397E-13 -6.99430362E-16  6.69303166E-01 -1.98976705E-14  7.43842064E-16
  1.80020656E-01  5.30461978E-02 -1.95360171E-14  1.38835740E-15  2.17247788E-01
  1.44767636E-16  4.78387425E-01  1.59006382E-01  7.44372177E-01  1.94255946E-17
  5.37065232E-01  4.78387425E-01  1.59006382E-01 -7.44372177E-01  7.34674071E-16
  5.37065232E-01  1.71357774E-16 -6.30656156E-16 -4.59281253E-15 -2.54066879E-16
 -1.16726782E-02  1.55196342E-15 -5.58766437E-16  3.11440327E-01  2.27507810E-15
 -2.26403370E-15 -3.26567689E-16 -1.04271689E+00  1.01902259E-16  1.11869900E-14
  2.61203874E-15 -6.95413164E-17  2.10472042E-15 -3.98146715E-01  1.27537044E-17
  3.00270544E-15  7.77517505E-16 -2.74033412E-15 -3.98146715E-01  7.92168268E-16
 -1.81154247E-17 -9.21707198E-16  4.36104272E-15  1.34329182E-16  1.84537188E-16
 -6.53571810E-16  4.71133125E-17 -4.10811767E-15 -2.62784942E-15  2.92560961E-15
 -1.46936760E-16  1.16291573E-14  7.62533945E-16  1.06605168E+00 -1.78859331E-15
 -7.71095947E-16 -1.43888140E-15  3.71196543E-01  1.92230439E-16 -2.74751926E-15
  1.18997324E-16  2.01997136E-15 -3.71196543E-01  1.74786313E-17 -1.58934419E-02
 -1.54893102E-01  5.57981274E-01  3.80941888E-15 -2.12272194E-16 -1.89816326E-02
  4.47241684E-16  9.53744724E-16 -5.37631761E-01  1.08434949E+00 -4.57311380E-15
 -2.45141844E-15 -1.76193778E-01 -2.78726069E-15 -3.06149001E-01 -3.78058652E-02
 -3.52386227E-01 -1.83984094E-15  3.15034381E-01 -3.06149001E-01 -3.78058652E-02
  3.52386227E-01  3.07980098E-16  3.15034381E-01  6.47817035E-02  1.78458510E-01
 -2.26788556E+00 -1.23795359E-14  7.95160944E-16  4.04387371E-01 -1.82198572E-14
 -1.14449431E-15  9.21855361E-01 -1.35648322E-01  2.90389998E-14  8.93507143E-16
 -1.15956511E+00  1.25786500E-15  1.23738511E+00  1.91744357E-01  6.20479498E-01
  6.84008922E-16  4.93124921E-01  1.23738511E+00  1.91744357E-01 -6.20479498E-01
 -7.02037846E-16  4.93124921E-01 -1.80798403E-15 -1.93610636E-14  8.25513437E-14
 -4.68169684E-01  1.35095917E-17 -7.90063792E-15 -1.14386728E+00  2.51351149E-16
 -3.15144529E-14  7.66951043E-15  1.32540647E+00 -9.18171492E-17  2.56012217E-14
  2.30070014E-16 -1.08540936E+00 -2.88455176E-01 -6.05701280E-01 -4.20549001E-16
 -4.93779592E-01  1.08540936E+00  2.88455176E-01 -6.05701280E-01 -3.95956586E-16
  4.93779592E-01
Alpha Orbital Energies                     R   N=          24
 -2.05505433E+01 -1.33645048E+00 -6.98957608E-01 -5.66543476E-01 -4.93122985E-01
  1.85475101E-01  2.56178723E-01  7.88824906E-01  8.53987196E-01  1.16357000E+00
  1.20037179E+00  1.25336472E+00  1.44437595E+00  1.47623354E+00  1.67439350E+00
  1.86733806E+00  1.93452869E+00  2.45157673E+00  2.48914485E+00  3.28537900E+00
  3.33828079E+00  3.51000878E+00  3.86507627E+00  4.14710796E+00
Total SCF Density                          R   N=         300
  2.08141163E+00 -1.69943951E-01  4.35236182E-01 -2.06406115E-01  4.36818301E-01
  5.27471425E-01 -2.54323542E-15  5.02710503E-16  2.99771807E-16  4.80061982E-01
  9.55615429E-17 -3.37576211E-17 -1.48854551E-16 -2.11406358E-16  7.96803615E-01
 -4.61869111E-02  9.39263388E-02  3.22270807E-01  4.15756277E-16  1.01086181E-16
  6.07328631E-01 -2.83691631E-15 -3.31416719E-15 -3.60717325E-15  2.17594331E-01
  3.31323105E-16 -1.18679539E-15  9.86274583E-02 -3.60241082E-16  2.01598314E-16
  1.51694143E-16 -8.15863363E-17  6.25724705E-01  2.16538031E-16  2.98454743E-16
  4.91377547E-01 -5.44038819E-02  1.21044182E-01  2.65317069E-01  8.73260291E-17
 -9.91835813E-17  3.96413882E-01 -1.32905538E-15  4.12081705E-17  2.67228896E-01
  1.96437973E-03 -4.25906288E-03 -1.15649523E-02 -1.52913558E-16  7.74536681E-17
 -1.96904751E-02 -1.51126321E-17  5.57806135E-17 -1.30246645E-02  6.41895927E-04
  4.30176120E-15  2.88644321E-16  3.53818972E-16 -2.62563198E-02 -8.02787550E-17
  3.58055508E-16 -1.19010182E-02 -6.76601497E-17  2.77872471E-16 -4.73065833E-18
  1.43605275E-03 -9.52994261E-17  2.68630583E-18  3.03834945E-18 -2.16529753E-18
 -2.29775680E-02 -1.39830642E-17 -1.32991284E-17 -1.80441349E-02 -3.82574308E-18
 -1.88445734E-18  2.76687276E-18  6.62608229E-04 -3.21579547E-04  1.28246057E-03
 -9.52366758E-04  3.05591700E-16  8.80081379E-17 -5.48591621E-03  1.33941740E-16
  6.89065509E-17 -3.27823539E-03  1.71713203E-04 -1.86678910E-17 -2.42450545E-18
  6.03500510E-05  5.59743934E-16 -4.29932457E-17 -6.05745930E-17 -2.91674521E-17
  8.42342402E-17 -3.18523335E-17 -1.32205267E-17  6.61486018E-17 -2.65029173E-17
  1.14178144E-18  1.59527307E-18 -2.42907781E-18  1.18014514E-19  1.61905795E-31
 -5.09495629E-02  1.08869510E-01  1.05566585E-03 -3.21266681E-01  1.80285562E-16
 -2.55654380E-01 -1.45618298E-01  1.02541516E-16 -1.45790198E-01  7.86051697E-03
  1.75712326E-02  6.78931420E-18  3.06041976E-03  1.60084477E-17  3.75050289E-01
  2.26891162E-03 -3.19235797E-03 -2.06837728E-02 -8.80786095E-02  3.06703273E-16
 -4.56836301E-02 -3.99227743E-02  2.16898925E-16 -2.92687537E-02  1.46995521E-03
  4.81733657E-03 -6.47799756E-18  4.32282274E-04  7.47597764E-18  7.95386495E-02
  1.96321275E-02 -1.19717348E-02  2.33877128E-02  5.83287514E-03 -2.28411167E-02
  8.78843914E-17 -4.05186332E-02 -1.03530329E-02  7.10429424E-17 -2.22345818E-02
  1.22811958E-03  1.24926298E-03 -9.97976293E-19  5.16044155E-04 -1.33868073E-19
  4.28256589E-02  7.51103340E-03  5.88656714E-03  7.57703147E-16 -7.61887902E-17
 -1.42916010E-16 -1.21822637E-16  3.92106279E-02 -1.37980334E-16 -3.41978910E-17
  3.07918514E-02 -1.06041514E-16  8.59653162E-18  2.14341615E-18 -1.13072387E-03
  5.38740134E-18  4.14515871E-18  1.20477376E-16  4.59110292E-17  1.41868368E-17
  1.92955116E-03 -1.03308328E-02  2.03225652E-02  2.06632390E-02 -3.20074273E-02
  1.22171002E-16  4.97464359E-03 -1.45077823E-02  1.01458470E-16  6.02475762E-03
 -2.17696898E-04  1.75060155E-03 -2.79471070E-18  5.39995848E-05 -7.27982137E-19
  2.62387638E-02  5.67796549E-03  2.57347132E-03  8.97872428E-18  3.08638995E-03
 -5.09495629E-02  1.08869510E-01  1.05566585E-03  3.21266681E-01 -1.88677152E-17
 -2.55654380E-01  1.45618298E-01  5.91516934E-17 -1.45790198E-01  7.86051697E-03
 -1.75712326E-02  1.47460976E-18  3.06041976E-03 -2.30303885E-17 -5.49453556E-02
 -3.83491385E-02  1.22542326E-02 -3.84508683E-17 -1.66012040E-02  3.75050289E-01
  2.26891162E-03 -3.19235797E-03 -2.06837728E-02  8.80786095E-02 -6.14679980E-16
 -4.56836301E-02  3.99227743E-02 -4.75676149E-16 -2.92687537E-02  1.46995521E-03
 -4.81733657E-03  1.70605057E-17  4.32282274E-04 -3.22692624E-18 -3.83491385E-02
 -1.26880384E-02 -8.70441790E-04 -4.03151272E-17 -6.06705825E-03  7.95386495E-02
  1.96321275E-02  1.19717348E-02 -2.33877128E-02 -5.83287514E-03 -2.28411167E-02
  1.20378495E-16  4.05186332E-02 -1.03530329E-02  8.44703012E-17  2.22345818E-02
 -1.22811958E-03  1.24926298E-03 -4.22156613E-18 -5.16044155E-04  2.90941457E-18
 -1.22542326E-02  8.70441790E-04 -3.71302859E-03  6.66431700E-18  4.72324470E-04
 -4.28256589E-02 -7.51103340E-03  5.88656714E-03 -6.63297495E-16 -5.50393979E-17
 -9.47234018E-17 -3.84581969E-17  3.92106279E-02 -1.22016752E-16  3.58812469E-18
  3.07918514E-02 -9.21696543E-17  8.02702155E-18 -2.41608550E-18 -1.13072387E-03
  5.27766861E-18  4.14515871E-18  7.36458918E-17  2.93813788E-17  1.29804479E-17
  1.92955116E-03  6.09225617E-18  2.62958103E-17 -2.62544612E-17 -6.21735051E-20
  1.92955116E-03 -1.03308328E-02  2.03225652E-02  2.06632390E-02  3.20074273E-02
 -1.08957076E-16  4.97464359E-03  1.45077823E-02 -6.87864556E-17  6.02475762E-03
 -2.17696898E-04 -1.75060155E-03  2.76870279E-18  5.39995848E-05 -4.61737616E-18
 -1.66012040E-02 -6.06705825E-03 -4.72324470E-04 -1.72525088E-17 -1.18170642E-03
  2.62387638E-02  5.67796549E-03 -2.57347132E-03 -9.02257382E-18  3.08638995E-03
Pure Switching                             I                1
Dipole_Data                                R   N=           3
  8.93558250E-15  6.53792911E-16 -2.05733286E+00
Quadrupole_Data                            R   N=           6
 -4.12196293E+00  8.01612862E-16 -7.03446738E+00  1.44804443E-15  1.82142607E-16
 -5.88513055E+00
Octapole_Data                              R   N=          10
  6.66010867E-15 -1.07527675E-16  1.96711952E-15  7.40387375E-16 -1.29440615E+00
 -2.77609468E-16 -2.98679352E-01  3.51937546E-15 -5.03709334E-17 -1.20102985E+00
Hexadecapole_Data                          R   N=          15
 -5.51266460E+00  6.55335465E-16 -2.02415394E+00  3.30392461E-16 -4.85162066E+00
  5.62582242E-16  1.69815532E-16  4.82189783E-16 -3.33121763E-17 -1.52234170E+00
  1.90501793E-16 -1.83830703E+00  1.57043751E-15  2.62416721E-17 -5.83115239E+00
