
Running Job 1 of 1 h2o_ccpvqz_cart.q
qchem h2o_ccpvqz_cart.q_329819.0 /scratch/jgrebol/PROVA/QCHEM/ORDER/QCHEM/qc_3643905/qchem329819/ 0
/scicomp/CentOS/7.4.1708/Skylake/software/QCHEM/6.0.1/exe/qcprog.exe_s h2o_ccpvqz_cart.q_329819.0 /scratch/jgrebol/PROVA/QCHEM/ORDER/QCHEM/qc_3643905/qchem329819/
                  Welcome to Q-Chem
     A Quantum Leap Into The Future Of Chemistry


 Q-Chem 6.0, Q-Chem, Inc., Pleasanton, CA (2022)

 License issued to: SRG Txomin Romero Asturiano, Donostia International Physics Center

 E. Epifanovsky,  A. T. B. Gilbert,  Xintian Feng,  Joonho Lee,  Yuezhi Mao,  
 N. Mardirossian,  P. Pokhilko,  A. White,  M. Wormit,  M. P. Coons,  
 A. L. Dempwolff,  Zhengting Gan,  D. Hait,  P. R. Horn,  L. D. Jacobson,  
 I. Kaliman,  J. Kussmann,  A. W. Lange,  Ka Un Lao,  D. S. Levine,  Jie Liu,  
 S. C. McKenzie,  A. F. Morrison,  K. Nanda,  F. Plasser,  D. R. Rehn,  
 M. L. Vidal,  Zhi-Qiang You,  Ying Zhu,  B. Alam,  B. Albrecht,  
 A. Aldossary,  E. Alguire,  J. H. Andersen,  V. Athavale,  D. Barton,  
 K. Begam,  A. Behn,  N. Bellonzi,  Y. A. Bernard,  E. J. Berquist,  
 H. Burton,  A. Carreras,  K. Carter-Fenk,  Romit Chakraborty,  
 Chandrima Chakravarty,  Junhan Chen,  A. D. Chien,  K. D. Closser,  
 V. Cofer-Shabica,  L. Cunha,  S. Dasgupta,  Jia Deng,  M. de Wergifosse,  
 M. Diedenhofen,  Hainam Do,  S. Ehlert,  Po-Tung Fang,  S. Fatehi,  
 Qingguo Feng,  T. Friedhoff,  B. Ganoe,  J. Gayvert,  Qinghui Ge,  
 G. Gidofalvi,  M. Goldey,  J. Gomes,  C. Gonzalez-Espinoza,  S. Gulania,  
 A. Gunina,  J. A. Gyamfi,  M. W. D. Hanson-Heine,  P. H. P. Harbach,  
 A. W. Hauser,  M. F. Herbst,  M. Hernandez Vera,  M. Hodecker,  
 Z. C. Holden,  S. Houck,  Xunkun Huang,  Kerwin Hui,  B. C. Huynh,  
 K. Ikeda,  M. Ivanov,  Hyunjun Ji,  Zuxin Jin,  Hanjie Jiang,  B. Kaduk,  
 S. Kaehler,  R. Kang,  K. Khistyaev,  Jaehoon Kim,  Yongbin Kim,  
 P. Klunzinger,  Z. Koczor-Benda,  Joong Hoon Koh,  D. Kosenkov,  
 Saikiran Kotaru,  L. Koulias,  T. Kowalczyk,  C. M. Krauter,  K. Kue,  
 A. Kunitsa,  T. Kus,  A. Landau,  K. V. Lawler,  D. Lefrancois,  S. Lehtola,  
 Rain Li,  Shaozhi Li,  Yi-Pei Li,  Jiashu Liang,  M. Liebenthal,  
 Hung-Hsuan Lin,  You-Sheng Lin,  Fenglai Liu,  Kuan-Yu Liu,  
 M. Loipersberger,  A. Luenser,  C. Malbon,  A. Manjanath,  P. Manohar,  
 E. Mansoor,  S. F. Manzer,  Shan-Ping Mao,  A. V. Marenich,  T. Markovich,  
 S. Mason,  F. Matz,  S. A. Maurer,  P. F. McLaughlin,  M. F. S. J. Menger,  
 J.-M. Mewes,  S. A. Mewes,  P. Morgante,  Mohammad Mostafanejad,  
 J. W. Mullinax,  K. J. Oosterbaan,  G. Paran,  V. Parravicini,  
 Alexander C. Paul,  Suranjan K. Paul,  F. Pavosevic,  Zheng Pei,  S. Prager,  
 E. I. Proynov,  E. Ramos,  B. Rana,  A. E. Rask,  A. Rettig,  R. M. Richard,  
 F. Rob,  E. Rossomme,  T. Scheele,  M. Scheurer,  M. Schneider,  
 P. E. Schneider,  N. Sergueev,  S. M. Sharada,  Hengyuan Shen,  
 W. Skomorowski,  D. W. Small,  C. J. Stein,  Yingli Su,  Yu-Chuan Su,  
 E. J. Sundstrom,  Zhen Tao,  J. Thirman,  Hung-Yi Tsai,  T. Tsuchimochi,  
 N. M. Tubman,  C. Utku,  S. P. Veccham,  O. Vydrov,  J. Wenzel,  
 Jonathan Wong,  J. Witte,  A. Yamada,  Chou-Hsun Yang,  Kun Yao,  
 S. Yeganeh,  S. R. Yost,  A. Zech,  F. Zeller,  Igor Ying Zhang,  
 Xing Zhang,  Yu Zhang,  D. Zuev,  A. Aspuru-Guzik,  A. T. Bell,  
 N. A. Besley,  K. B. Bravaya,  B. R. Brooks,  D. Casanova,  Jeng-Da Chai,  
 Hsing-Ta Chen,  S. Coriani,  C. J. Cramer,  A. E. DePrince, III,  
 R. A. DiStasio Jr.,  A. Dreuw,  B. D. Dunietz,  T. R. Furlani,  
 W. A. Goddard III,  S. Grimme,  S. Hammes-Schiffer,  T. Head-Gordon,  
 W. J. Hehre,  Chao-Ping Hsu,  T.-C. Jagau,  Yousung Jung,  A. Klamt,  
 Jing Kong,  D. S. Lambrecht,  Xiangyuan Li,  WanZhen Liang,  N. J. Mayhall,  
 C. W. McCurdy,  J. B. Neaton,  T. Neudecker,  C. Ochsenfeld,  
 J. A. Parkhill,  R. Peverati,  V. A. Rassolov,  Haisheng Ren,  Yihan Shao,  
 L. V. Slipchenko,  R. P. Steele,  J. E. Subotnik,  A. J. W. Thom,  
 A. Tkatchenko,  D. G. Truhlar,  T. Van Voorhis,  Fan Wang,  
 T. A. Wesolowski,  K. B. Whaley,  H. L. Woodcock III,  P. M. Zimmerman,  
 S. Faraji,  P. M. W. Gill,  M. Head-Gordon,  J. M. Herbert,  A. I. Krylov

 Contributors to earlier versions of Q-Chem not listed above: 
 R. D. Adamson,  B. Austin,  R. Baer,  J. Baker,  G. J. O. Beran,  
 K. Brandhorst,  S. T. Brown,  E. F. C. Byrd,  Arup K. Chakraborty,  
 G. K. L. Chan,  Chun-Min Chang,  Yunqing Chen,  C.-L. Cheng,  
 Siu Hung Chien,  D. M. Chipman,  D. L. Crittenden,  H. Dachsel,  
 R. J. Doerksen,  A. D. Dutoi,  R. G. Edgar,  J. Fosso-Tande,  
 L. Fusti-Molnar,  D. Ghosh,  A. Ghysels,  A. Golubeva-Zadorozhnaya,  
 J. Gonthier,  M. S. Gordon,  S. R. Gwaltney,  G. Hawkins,  J. E. Herr,  
 A. Heyden,  S. Hirata,  E. G. Hohenstein,  G. Kedziora,  F. J. Keil,  
 C. Kelley,  Jihan Kim,  R. A. King,  R. Z. Khaliullin,  P. P. Korambath,  
 W. Kurlancheek,  A. Laurent,  A. M. Lee,  M. S. Lee,  S. V. Levchenko,  
 Ching Yeh Lin,  D. Liotard,  E. Livshits,  R. C. Lochan,  I. Lotan,  
 L. A. Martinez-Martinez,  P. E. Maslen,  N. Nair,  D. P. O'Neill,  
 D. Neuhauser,  E. Neuscamman,  C. M. Oana,  R. Olivares-Amaya,  R. Olson,  
 T. M. Perrine,  B. Peters,  P. A. Pieniazek,  A. Prociuk,  Y. M. Rhee,  
 J. Ritchie,  M. A. Rohrdanz,  E. Rosta,  N. J. Russ,  H. F. Schaefer III,  
 M. W. Schmidt,  N. E. Schultz,  S. Sharma,  N. Shenvi,  C. D. Sherrill,  
 A. C. Simmonett,  A. Sodt,  T. Stein,  D. Stuck,  K. S. Thanthiriwatte,  
 V. Vanovschi,  L. Vogt,  Tao Wang,  A. Warshel,  M. A. Watson,  
 C. F. Williams,  Q. Wu,  X. Xu,  Jun Yang,  W. Zhang,  Yan Zhao

   Please cite Q-Chem as follows:
  "Software for the frontiers of quantum chemistry:
   An overview of developments in the Q-Chem 5 package"
   J. Chem. Phys. 155, 084801 (2021)
   https://doi.org/10.1063/5.0055522 (open access)

 Q-Chem 6.0.1 for Intel X86 EM64T Linux

 Parts of Q-Chem use Armadillo 9.900.5 (Nocturnal Misbehaviour).
 http://arma.sourceforge.net/

 Q-Chem begins on Tue Mar 31 15:10:46 2026  

 Host: 
0

     Scratch files written to /scratch/jgrebol/PROVA/QCHEM/ORDER/QCHEM/qc_3643905/qchem329819//
 Aug2322 |scratch|qcdevops|jenkins|workspace|build_RNUM 8725   
 Processing $rem in /scicomp/CentOS/7.4.1708/Skylake/software/QCHEM/6.0.1/config/preferences:
 Processing $rem in /dipc/jgrebol/.qchemrc:

 Checking the input file for inconsistencies... 	...done.

 Q-Chem warning in module forms1/BasisType.C, line 2853:

 You are not using the predefined 5D/6D in this basis set.


--------------------------------------------------------------
User input:
--------------------------------------------------------------
$molecule
0 1
O      0.000000    0.000000    0.117300
H      0.000000    0.757200   -0.469200
H      0.000000   -0.757200   -0.469200
$end

$rem
METHOD = HF
BASIS = cc-pVQZ
PURECART = 222
GUI = 2
PRINT_ORBITALS = TRUE
PRINT_GENERAL_BASIS = TRUE
$end
--------------------------------------------------------------
 ----------------------------------------------------------------
             Standard Nuclear Orientation (Angstroms)
    I     Atom           X                Y                Z
 ----------------------------------------------------------------
    1      O       0.0000000000     0.0000000000     0.1173000000
    2      H      -0.7572000000    -0.0000000000    -0.4692000000
    3      H       0.7572000000     0.0000000000    -0.4692000000
 ----------------------------------------------------------------
 Molecular Point Group                 C2v   NOp =  4
 Largest Abelian Subgroup              C2v   NOp =  4
 Nuclear Repulsion Energy =           9.18953376 hartrees
 There are        5 alpha and        5 beta electrons
 Requested basis set is cc-pVQZ
 Basis set in general basis input format:
-----------------------------------------------------------------------
$basis
O    0
S    8    1.000000
   6.14200000E+04    9.15600000E-05 
   9.19900000E+03    6.97330000E-04 
   2.09100000E+03    3.67901000E-03 
   5.90900000E+02    1.50670600E-02 
   1.92300000E+02    5.16674200E-02 
   6.93200000E+01    1.35843520E-01 
   2.69700000E+01    2.60704420E-01 
   1.11000000E+01    1.96456920E-01 
S    8    1.000000
   6.14200000E+04    6.10000000E-07 
   9.19900000E+03   -1.80000000E-06 
   5.90900000E+02   -1.08610000E-04 
   1.92300000E+02   -4.94110000E-04 
   6.93200000E+01   -5.43605000E-03 
   2.69700000E+01   -2.33243000E-02 
   1.11000000E+01   -1.03719380E-01 
   4.68200000E+00   -1.10942760E-01 
S    1    1.000000
   1.42800000E+00    1.00000000E+00 
S    1    1.000000
   5.54700000E-01    1.00000000E+00 
S    1    1.000000
   2.06700000E-01    1.00000000E+00 
P    3    1.000000
   6.34200000E+01    6.04400000E-03 
   1.46600000E+01    4.17990000E-02 
   4.45900000E+00    1.61143000E-01 
P    1    1.000000
   1.53100000E+00    1.00000000E+00 
P    1    1.000000
   5.30200000E-01    1.00000000E+00 
P    1    1.000000
   1.75000000E-01    1.00000000E+00 
D    1    1.000000
   3.77500000E+00    1.00000000E+00 
D    1    1.000000
   1.30000000E+00    1.00000000E+00 
D    1    1.000000
   4.44000000E-01    1.00000000E+00 
F    1    1.000000
   2.66600000E+00    1.00000000E+00 
F    1    1.000000
   8.59000000E-01    1.00000000E+00 
G    1    1.000000
   1.84600000E+00    1.00000000E+00 
****
H    0
S    3    1.000000
   8.26400000E+01    2.00600000E-03 
   1.24100000E+01    1.53430000E-02 
   2.82400000E+00    7.55790000E-02 
S    1    1.000000
   7.97700000E-01    1.00000000E+00 
S    1    1.000000
   2.58100000E-01    1.00000000E+00 
S    1    1.000000
   8.98900000E-02    1.00000000E+00 
P    1    1.000000
   2.29200000E+00    1.00000000E+00 
P    1    1.000000
   8.38000000E-01    1.00000000E+00 
P    1    1.000000
   2.92000000E-01    1.00000000E+00 
D    1    1.000000
   2.06200000E+00    1.00000000E+00 
D    1    1.000000
   6.62000000E-01    1.00000000E+00 
F    1    1.000000
   1.39700000E+00    1.00000000E+00 
****
H    0
S    3    1.000000
   8.26400000E+01    2.00600000E-03 
   1.24100000E+01    1.53430000E-02 
   2.82400000E+00    7.55790000E-02 
S    1    1.000000
   7.97700000E-01    1.00000000E+00 
S    1    1.000000
   2.58100000E-01    1.00000000E+00 
S    1    1.000000
   8.98900000E-02    1.00000000E+00 
P    1    1.000000
   2.29200000E+00    1.00000000E+00 
P    1    1.000000
   8.38000000E-01    1.00000000E+00 
P    1    1.000000
   2.92000000E-01    1.00000000E+00 
D    1    1.000000
   2.06200000E+00    1.00000000E+00 
D    1    1.000000
   6.62000000E-01    1.00000000E+00 
F    1    1.000000
   1.39700000E+00    1.00000000E+00 
****
$end
-----------------------------------------------------------------------
 There are 35 shells and 140 basis functions

 Total QAlloc Memory Limit   2048 MB
 Mega-Array Size       188 MB
 MEM_STATIC part       192 MB


                       Distance Matrix (Angstroms)
             O (  1)   H (  2)
   H (  2)  0.957776
   H (  3)  0.957776  1.514400
 
 A cutoff of  1.0D-09 yielded    630 shell pairs
 There are     10290 function pairs
 Smallest overlap matrix eigenvalue = 8.52E-05

 Scale SEOQF with 1.000000e+00/1.000000e+00/1.000000e+00

 Standard Electronic Orientation quadrupole field applied
 Nucleus-field energy     =    -0.0000000002 hartrees
 ================ Generating on-the-fly SAD Guess ================
 Attempting to make child job directory: /scratch/jgrebol/PROVA/QCHEM/ORDER/QCHEM/qc_3643905/qchem329819//Frg1/
 Attempting to make child job directory: /scratch/jgrebol/PROVA/QCHEM/ORDER/QCHEM/qc_3643905/qchem329819//Frg2/
 Creating input file /scratch/jgrebol/PROVA/QCHEM/ORDER/QCHEM/qc_3643905/qchem329819/Frg1.input
 using default PutDataFrgm: nothing
 calling putenv with: QCSCRATCH=/scratch/jgrebol/PROVA/QCHEM/ORDER/QCHEM/qc_3643905/qchem329819/ 
 calling putenv with: BRIANQC_ENABLE=0 
 Spawning Job For Fragment 0
 Done Job For Fragment 0
 calling putenv with: QCSCRATCH=/scratch/jgrebol/PROVA/QCHEM/ORDER/QCHEM/qc_3643905 
 calling putenv with: QCTHREADS=1 
 Creating input file /scratch/jgrebol/PROVA/QCHEM/ORDER/QCHEM/qc_3643905/qchem329819/Frg2.input
 using default PutDataFrgm: nothing
 calling putenv with: QCSCRATCH=/scratch/jgrebol/PROVA/QCHEM/ORDER/QCHEM/qc_3643905/qchem329819/ 
 calling putenv with: BRIANQC_ENABLE=0 
 Spawning Job For Fragment 1
 Done Job For Fragment 1
 calling putenv with: QCSCRATCH=/scratch/jgrebol/PROVA/QCHEM/ORDER/QCHEM/qc_3643905 
 calling putenv with: QCTHREADS=1 
 Time for running child jobs:  CPU 0.00 s  wall 2.06 s
 ============= Method Specific SAD Guess Constructed =============
 Guess from on-the-fly superposition of atomic densities
 Warning: Energy on first SCF cycle will be non-variational

 -----------------------------------------------------------------------
  General SCF calculation program by
  Eric Jon Sundstrom, Paul Horn, Yuezhi Mao, Dmitri Zuev, Alec White,
  David Stuck, Shaama M.S., Shane Yost, Joonho Lee, David Small,
  Daniel Levine, Susi Lehtola, Hugh Burton, Evgeny Epifanovsky,
  Bang C. Huynh
 -----------------------------------------------------------------------
 Hartree-Fock
 A restricted SCF calculation will be
 performed using DIIS
 SCF converges when DIIS error is below 1.0e-05
 ---------------------------------------
  Cycle       Energy         DIIS error
 ---------------------------------------
    1     -75.8356849725      2.45e-02  
    2     -76.0143952709      5.23e-03  
    3     -76.0498335830      3.20e-03  
    4     -76.0648939245      2.18e-04  
    5     -76.0650333175      6.31e-05  
    6     -76.0650493606      1.29e-05  
    7     -76.0650503403      2.45e-06  Convergence criterion met
 ---------------------------------------
 SCF time:   CPU 3.92s  wall 4.00s 
 SCF   energy in the final basis set =      -76.0650503403
 Total energy in the final basis set =      -76.0650503403
 
 --------------------------------------------------------------
             Orbital Energies (a.u.) and Symmetries
 --------------------------------------------------------------
 
 Alpha MOs, Restricted
 -- Occupied --                  
-20.561  -1.350  -0.715  -0.582  -0.509
  1 A1    2 A1    1 B1    3 A1    1 B2                                         
 -- Virtual --                   
  0.105   0.164   0.432   0.441   0.465   0.507   0.565   0.592
  4 A1    2 B1    3 B1    5 A1    6 A1    2 B2    7 A1    4 B1                 
  0.610   0.621   0.668   0.855   1.024   1.063   1.241   1.253
  1 A2    8 A1    3 B2    5 B1    9 A1    6 B1   10 A1    7 B1                 
  1.477   1.478   1.482   1.559   1.625   1.784   1.805   1.928
  4 B2    2 A2   11 A1   12 A1    8 B1   13 A1    5 B2    3 A2                 
  1.999   2.031   2.139   2.187   2.258   2.350   2.369   2.371
 14 A1    6 B2    9 B1    7 B2   15 A1   10 B1   16 A1   11 B1                 
  2.531   2.707   2.813   2.867   2.952   3.131   3.146   3.171
  4 A2   17 A1    5 A2    8 B2   12 B1   13 B1   18 A1   19 A1                 
  3.397   3.462   3.482   3.961   4.014   4.118   4.118   4.187
 20 A1   14 B1   15 B1    9 B2   10 B2   21 A1    6 A2   11 B2                 
  4.239   4.278   4.299   4.496   4.575   4.654   4.665   4.752
 22 A1   23 A1   16 B1    7 A2   17 B1   24 A1   12 B2   25 A1                 
  4.771   4.809   4.918   5.072   5.226   5.601   5.981   6.079
 13 B2   18 B1    8 A2   26 A1   19 B1   27 A1   14 B2   20 B1                 
  6.152   6.158   6.249   6.567   6.584   6.750   6.860   7.346
 28 A1   21 B1    9 A2   22 B1   29 A1   10 A2   30 A1   15 B2                 
  7.376   7.909   7.991   8.008   8.059   8.101   8.248   8.318
 23 B1   16 B2   11 A2   31 A1   17 B2   24 B1   32 A1   12 A2                 
  8.355   8.473   8.487   8.583   8.792   8.868   8.984   9.128
 33 A1   18 B2   25 B1   13 A2   26 B1   34 A1   27 B1   35 A1                 
  9.205   9.320   9.527   9.751   9.782   9.798   9.826   9.872
 28 B1   36 A1   37 A1   14 A2   19 B2   29 B1   38 A1   30 B1                 
 10.278  10.310  10.489  10.603  10.755  11.034  11.124  11.388
 39 A1   20 B2   31 B1   40 A1   15 A2   21 B2   41 A1   16 A2                 
 11.531  11.608  11.650  11.846  11.875  12.142  12.293  12.374
 32 B1   22 B2   42 A1   23 B2   33 B1   43 A1   24 B2   17 A2                 
 12.419  12.491  13.698  13.701  13.728  13.777  13.892  14.052
 44 A1   34 B1   25 B2   45 A1   46 A1   18 A2   35 B1   36 B1                 
 15.656  15.845  19.349  22.740  23.074  23.531  25.145  25.483
 37 B1   47 A1   48 A1   26 B2   19 A2   49 A1   50 A1   38 B1                 
 26.006  26.603  29.933  33.234  35.014  36.216 118.714
 39 B1   51 A1   27 B2   52 A1   40 B1   53 A1   54 A1                         
 
 Beta MOs, Restricted
 -- Occupied --                  
-20.561  -1.350  -0.715  -0.582  -0.509
  1 A1    2 A1    1 B1    3 A1    1 B2                                         
 -- Virtual --                   
  0.105   0.164   0.432   0.441   0.465   0.507   0.565   0.592
  4 A1    2 B1    3 B1    5 A1    6 A1    2 B2    7 A1    4 B1                 
  0.610   0.621   0.668   0.855   1.024   1.063   1.241   1.253
  1 A2    8 A1    3 B2    5 B1    9 A1    6 B1   10 A1    7 B1                 
  1.477   1.478   1.482   1.559   1.625   1.784   1.805   1.928
  4 B2    2 A2   11 A1   12 A1    8 B1   13 A1    5 B2    3 A2                 
  1.999   2.031   2.139   2.187   2.258   2.350   2.369   2.371
 14 A1    6 B2    9 B1    7 B2   15 A1   10 B1   16 A1   11 B1                 
  2.531   2.707   2.813   2.867   2.952   3.131   3.146   3.171
  4 A2   17 A1    5 A2    8 B2   12 B1   13 B1   18 A1   19 A1                 
  3.397   3.462   3.482   3.961   4.014   4.118   4.118   4.187
 20 A1   14 B1   15 B1    9 B2   10 B2   21 A1    6 A2   11 B2                 
  4.239   4.278   4.299   4.496   4.575   4.654   4.665   4.752
 22 A1   23 A1   16 B1    7 A2   17 B1   24 A1   12 B2   25 A1                 
  4.771   4.809   4.918   5.072   5.226   5.601   5.981   6.079
 13 B2   18 B1    8 A2   26 A1   19 B1   27 A1   14 B2   20 B1                 
  6.152   6.158   6.249   6.567   6.584   6.750   6.860   7.346
 28 A1   21 B1    9 A2   22 B1   29 A1   10 A2   30 A1   15 B2                 
  7.376   7.909   7.991   8.008   8.059   8.101   8.248   8.318
 23 B1   16 B2   11 A2   31 A1   17 B2   24 B1   32 A1   12 A2                 
  8.355   8.473   8.487   8.583   8.792   8.868   8.984   9.128
 33 A1   18 B2   25 B1   13 A2   26 B1   34 A1   27 B1   35 A1                 
  9.205   9.320   9.527   9.751   9.782   9.798   9.826   9.872
 28 B1   36 A1   37 A1   14 A2   19 B2   29 B1   38 A1   30 B1                 
 10.278  10.310  10.489  10.603  10.755  11.034  11.124  11.388
 39 A1   20 B2   31 B1   40 A1   15 A2   21 B2   41 A1   16 A2                 
 11.531  11.608  11.650  11.846  11.875  12.142  12.293  12.374
 32 B1   22 B2   42 A1   23 B2   33 B1   43 A1   24 B2   17 A2                 
 12.419  12.491  13.698  13.701  13.728  13.777  13.892  14.052
 44 A1   34 B1   25 B2   45 A1   46 A1   18 A2   35 B1   36 B1                 
 15.656  15.845  19.349  22.740  23.074  23.531  25.145  25.483
 37 B1   47 A1   48 A1   26 B2   19 A2   49 A1   50 A1   38 B1                 
 26.006  26.603  29.933  33.234  35.014  36.216 118.714
 39 B1   51 A1   27 B2   52 A1   40 B1   53 A1   54 A1                         
 --------------------------------------------------------------
 

                        RESTRICTED (RHF) MOLECULAR ORBITAL COEFFICIENTS
                         1         2         3         4         5         6
 eigenvalues:        -20.561    -1.350    -0.715    -0.582    -0.509     0.105
   1  O     s       -0.58641  -0.11965  -0.00000   0.03905   0.00000  -0.02668
   2  O     s        0.44638   0.20875   0.00000  -0.07126  -0.00000   0.06677
   3  O     s       -0.02084   0.25388   0.00000  -0.07708  -0.00000  -0.29020
   4  O     s        0.00296   0.47404  -0.00000  -0.16890   0.00000   0.31720
   5  O     s        0.00016   0.18495  -0.00000  -0.29053   0.00000   3.46966
   6  O     px       0.00000   0.00000   0.14280   0.00000   0.00000  -0.00000
   7  O     py      -0.00000   0.00000  -0.00000   0.00000  -0.17854  -0.00000
   8  O     pz       0.00221  -0.02241   0.00000  -0.15735  -0.00000  -0.03593
   9  O     px       0.00000  -0.00000   0.25725   0.00000   0.00000   0.00000
  10  O     py      -0.00000   0.00000   0.00000   0.00000  -0.34280   0.00000
  11  O     pz      -0.00307  -0.03854   0.00000  -0.29273   0.00000  -0.06952
  12  O     px      -0.00000   0.00000   0.28054  -0.00000  -0.00000  -0.00000
  13  O     py       0.00000  -0.00000   0.00000   0.00000  -0.32595  -0.00000
  14  O     pz       0.00027  -0.05789   0.00000  -0.31430  -0.00000  -0.29705
  15  O     px      -0.00000  -0.00000   0.10948  -0.00000  -0.00000  -0.00000
  16  O     py      -0.00000   0.00000   0.00000  -0.00000  -0.29612  -0.00000
  17  O     pz       0.00004  -0.00599   0.00000  -0.21119  -0.00000  -0.54679
  18  O     dxx      0.00088   0.00312   0.00000  -0.00079   0.00000  -0.01641
  19  O     dxy     -0.00000  -0.00000   0.00000  -0.00000  -0.00000  -0.00000
  20  O     dyy      0.00160   0.00298   0.00000  -0.00316  -0.00000  -0.02171
  21  O     dxz      0.00000  -0.00000  -0.00398   0.00000   0.00000   0.00000
  22  O     dyz      0.00000   0.00000   0.00000  -0.00000   0.00257   0.00000
  23  O     dzz      0.00118   0.00338  -0.00000   0.00172   0.00000  -0.01674
  24  O     dxx     -0.00041   0.00770  -0.00000   0.00612  -0.00000  -0.05337
  25  O     dxy      0.00000   0.00000  -0.00000   0.00000   0.00000   0.00000
  26  O     dyy     -0.00362  -0.00977  -0.00000  -0.00268   0.00000  -0.04219
  27  O     dxz     -0.00000   0.00000  -0.02275  -0.00000  -0.00000  -0.00000
  28  O     dyz     -0.00000  -0.00000  -0.00000   0.00000   0.00542  -0.00000
  29  O     dzz     -0.00180   0.00201   0.00000   0.01191  -0.00000  -0.05188
  30  O     dxx     -0.00027   0.01146  -0.00000   0.02496   0.00000  -0.39042
  31  O     dxy     -0.00000  -0.00000   0.00000  -0.00000  -0.00000  -0.00000
  32  O     dyy     -0.00038   0.00624   0.00000   0.00606  -0.00000  -0.55933
  33  O     dxz      0.00000   0.00000  -0.01566  -0.00000   0.00000   0.00000
  34  O     dyz     -0.00000   0.00000   0.00000  -0.00000   0.01545   0.00000
  35  O     dzz     -0.00062   0.01304  -0.00000   0.04110   0.00000  -0.42616
  36  O     fxxx     0.00000  -0.00000   0.00517   0.00000   0.00000   0.00000
  37  O     fxxy    -0.00000   0.00000  -0.00000  -0.00000  -0.00272  -0.00000
  38  O     fxyy     0.00000  -0.00000   0.00025   0.00000   0.00000   0.00000
  39  O     fyyy    -0.00000   0.00000  -0.00000  -0.00000  -0.00241  -0.00000
  40  O     fxxz     0.00050  -0.00206   0.00000  -0.00310   0.00000  -0.00106
  41  O     fxyz    -0.00000  -0.00000   0.00000  -0.00000  -0.00000  -0.00000
  42  O     fyyz     0.00052  -0.00004  -0.00000  -0.00074   0.00000   0.00009
  43  O     fxzz     0.00000  -0.00000   0.00265   0.00000   0.00000   0.00000
  44  O     fyzz    -0.00000   0.00000  -0.00000  -0.00000  -0.00208  -0.00000
  45  O     fzzz     0.00111  -0.00107  -0.00000  -0.00390   0.00000   0.00026
  46  O     fxxx     0.00000  -0.00000   0.01164   0.00000   0.00000   0.00000
  47  O     fxxy    -0.00000   0.00000  -0.00000  -0.00000  -0.02124   0.00000
  48  O     fxyy     0.00000  -0.00000   0.00174   0.00000   0.00000   0.00000
  49  O     fyyy    -0.00000   0.00000  -0.00000  -0.00000  -0.03539   0.00000
  50  O     fxxz    -0.00018  -0.00023  -0.00000  -0.01551   0.00000  -0.03596
  51  O     fxyz     0.00000   0.00000  -0.00000   0.00000   0.00000   0.00000
  52  O     fyyz    -0.00002   0.00239  -0.00000  -0.00734   0.00000   0.01264
  53  O     fxzz     0.00000  -0.00000   0.00357   0.00000   0.00000   0.00000
  54  O     fyzz    -0.00000   0.00000  -0.00000  -0.00000  -0.01928   0.00000
  55  O     fzzz     0.00000   0.00263  -0.00000  -0.02597   0.00000  -0.00340
  56  O     gxxxx    0.00104   0.00151   0.00000  -0.00135   0.00000  -0.02611
  57  O     gxxxy   -0.00000  -0.00000   0.00000  -0.00000  -0.00000  -0.00000
  58  O     gxxyy    0.00105   0.00231   0.00000  -0.00090  -0.00000  -0.02386
  59  O     gxyyy   -0.00000  -0.00000   0.00000  -0.00000  -0.00000  -0.00000
  60  O     gyyyy    0.00260   0.00661   0.00000  -0.00119  -0.00000  -0.05137
  61  O     gxxxz    0.00000  -0.00000   0.00209  -0.00000   0.00000   0.00000
  62  O     gxxyz    0.00000   0.00000   0.00000  -0.00000   0.00087   0.00000
  63  O     gxyyz    0.00000   0.00000   0.00132  -0.00000   0.00000   0.00000
  64  O     gyyyz    0.00000   0.00000   0.00000  -0.00000   0.00069   0.00000
  65  O     gxxzz    0.00088   0.00174  -0.00000   0.00059   0.00000  -0.01433
  66  O     gxyzz   -0.00000  -0.00000   0.00000  -0.00000  -0.00000  -0.00000
  67  O     gyyzz    0.00127   0.00285   0.00000  -0.00063  -0.00000  -0.02597
  68  O     gxzzz    0.00000  -0.00000   0.00279  -0.00000   0.00000   0.00000
  69  O     gyzzz    0.00000   0.00000   0.00000  -0.00000   0.00108   0.00000
  70  O     gzzzz    0.00176   0.00353  -0.00000   0.00025   0.00000  -0.03358
  71  H 1   s       -0.00002   0.03641  -0.05569   0.03309   0.00000  -0.01412
  72  H 1   s       -0.00061   0.07818  -0.14005   0.07340  -0.00000  -0.16725
  73  H 1   s        0.00008   0.04598  -0.18068   0.11450  -0.00000  -0.18353
  74  H 1   s       -0.00004   0.00534  -0.04100   0.01922  -0.00000  -1.17314
  75  H 1   px      -0.00003   0.00829  -0.00854   0.01147   0.00000  -0.02803
  76  H 1   py       0.00000   0.00000  -0.00000   0.00000  -0.00777   0.00000
  77  H 1   pz       0.00014   0.00510  -0.00779   0.00044   0.00000  -0.02331
  78  H 1   px      -0.00042   0.00108   0.00327  -0.01857  -0.00000   0.06536
  79  H 1   py      -0.00000  -0.00000   0.00000  -0.00000   0.00007  -0.00000
  80  H 1   pz      -0.00095   0.00325  -0.00649  -0.00797  -0.00000   0.05336
  81  H 1   px      -0.00006   0.00694  -0.01709   0.01410  -0.00000  -0.22915
  82  H 1   py      -0.00000   0.00000  -0.00000   0.00000  -0.03124   0.00000
  83  H 1   pz      -0.00006   0.00345  -0.01911  -0.01721  -0.00000  -0.15744
  84  H 1   dxx     -0.00010   0.00307  -0.00233   0.00248  -0.00000  -0.00680
  85  H 1   dxy      0.00000   0.00000  -0.00000  -0.00000  -0.00151  -0.00000
  86  H 1   dyy      0.00003   0.00043  -0.00033  -0.00004   0.00000  -0.00423
  87  H 1   dxz     -0.00011   0.00206  -0.00288   0.00081  -0.00000  -0.00209
  88  H 1   dyz      0.00000   0.00000   0.00000   0.00000  -0.00120   0.00000
  89  H 1   dzz     -0.00002   0.00175  -0.00269  -0.00046  -0.00000  -0.00641
  90  H 1   dxx     -0.00022   0.00249  -0.00337  -0.00077  -0.00000  -0.10193
  91  H 1   dxy     -0.00000  -0.00000   0.00000  -0.00000  -0.00441   0.00000
  92  H 1   dyy      0.00005   0.00090   0.00010  -0.00204  -0.00000  -0.04768
  93  H 1   dxz     -0.00032   0.00134  -0.00406  -0.00324  -0.00000  -0.04208
  94  H 1   dyz     -0.00000  -0.00000   0.00000  -0.00000  -0.00295  -0.00000
  95  H 1   dzz     -0.00019   0.00193  -0.00404  -0.00502  -0.00000  -0.07525
  96  H 1   fxxx    -0.00008   0.00441  -0.00588   0.01061   0.00000  -0.05396
  97  H 1   fxxy     0.00000   0.00000  -0.00000   0.00000  -0.00323   0.00000
  98  H 1   fxyy     0.00004   0.00151  -0.00247   0.00399   0.00000  -0.02094
  99  H 1   fyyy     0.00000   0.00000  -0.00000   0.00000  -0.00463   0.00000
 100  H 1   fxxz    -0.00003   0.00134  -0.00240   0.00053   0.00000  -0.02154
 101  H 1   fxyz    -0.00000  -0.00000   0.00000  -0.00000  -0.00093  -0.00000
 102  H 1   fyyz     0.00013   0.00076  -0.00104   0.00042   0.00000  -0.01646
 103  H 1   fxzz    -0.00006   0.00207  -0.00378   0.00363   0.00000  -0.02462
 104  H 1   fyzz     0.00000   0.00000  -0.00000   0.00000  -0.00277   0.00000
 105  H 1   fzzz     0.00027   0.00185  -0.00339   0.00019   0.00000  -0.03974
 106  H 2   s       -0.00002   0.03641   0.05569   0.03309  -0.00000  -0.01412
 107  H 2   s       -0.00061   0.07818   0.14005   0.07340   0.00000  -0.16725
 108  H 2   s        0.00008   0.04598   0.18068   0.11450   0.00000  -0.18353
 109  H 2   s       -0.00004   0.00534   0.04100   0.01922   0.00000  -1.17314
 110  H 2   px       0.00003  -0.00829  -0.00854  -0.01147   0.00000   0.02803
 111  H 2   py       0.00000  -0.00000  -0.00000   0.00000  -0.00777   0.00000
 112  H 2   pz       0.00014   0.00510   0.00779   0.00044  -0.00000  -0.02331
 113  H 2   px       0.00042  -0.00108   0.00327   0.01857  -0.00000  -0.06536
 114  H 2   py      -0.00000   0.00000   0.00000  -0.00000   0.00007  -0.00000
 115  H 2   pz      -0.00095   0.00325   0.00649  -0.00797   0.00000   0.05336
 116  H 2   px       0.00006  -0.00694  -0.01709  -0.01410  -0.00000   0.22915
 117  H 2   py       0.00000  -0.00000  -0.00000   0.00000  -0.03124   0.00000
 118  H 2   pz      -0.00006   0.00345   0.01911  -0.01721   0.00000  -0.15744
 119  H 2   dxx     -0.00010   0.00307   0.00233   0.00248  -0.00000  -0.00680
 120  H 2   dxy     -0.00000  -0.00000  -0.00000  -0.00000   0.00151   0.00000
 121  H 2   dyy      0.00003   0.00043   0.00033  -0.00004  -0.00000  -0.00423
 122  H 2   dxz      0.00011  -0.00206  -0.00288  -0.00081  -0.00000   0.00209
 123  H 2   dyz      0.00000   0.00000  -0.00000  -0.00000  -0.00120  -0.00000
 124  H 2   dzz     -0.00002   0.00175   0.00269  -0.00046  -0.00000  -0.00641
 125  H 2   dxx     -0.00022   0.00249   0.00337  -0.00077   0.00000  -0.10193
 126  H 2   dxy     -0.00000  -0.00000  -0.00000   0.00000   0.00441  -0.00000
 127  H 2   dyy      0.00005   0.00090  -0.00010  -0.00204  -0.00000  -0.04768
 128  H 2   dxz      0.00032  -0.00134  -0.00406   0.00324  -0.00000   0.04208
 129  H 2   dyz      0.00000   0.00000   0.00000   0.00000  -0.00295   0.00000
 130  H 2   dzz     -0.00019   0.00193   0.00404  -0.00502   0.00000  -0.07525
 131  H 2   fxxx     0.00008  -0.00441  -0.00588  -0.01061   0.00000   0.05396
 132  H 2   fxxy     0.00000  -0.00000  -0.00000   0.00000  -0.00323   0.00000
 133  H 2   fxyy    -0.00004  -0.00151  -0.00247  -0.00399   0.00000   0.02094
 134  H 2   fyyy     0.00000  -0.00000  -0.00000   0.00000  -0.00463   0.00000
 135  H 2   fxxz    -0.00003   0.00134   0.00240   0.00053   0.00000  -0.02154
 136  H 2   fxyz    -0.00000  -0.00000  -0.00000  -0.00000   0.00093  -0.00000
 137  H 2   fyyz     0.00013   0.00076   0.00104   0.00042  -0.00000  -0.01646
 138  H 2   fxzz     0.00006  -0.00207  -0.00378  -0.00363   0.00000   0.02462
 139  H 2   fyzz     0.00000  -0.00000  -0.00000   0.00000  -0.00277   0.00000
 140  H 2   fzzz     0.00027   0.00185   0.00339   0.00019  -0.00000  -0.03974
                         7         8         9        10
 eigenvalues:          0.164     0.432     0.441     0.465
   1  O     s       -0.00000   0.00000   0.03429   0.02196
   2  O     s       -0.00000  -0.00000  -0.03954  -0.04433
   3  O     s        0.00000  -0.00000  -0.00951  -0.30043
   4  O     s       -0.00000   0.00000  -2.13883   1.68637
   5  O     s       -0.00000   0.00000  -4.17328   3.03685
   6  O     px      -0.05357   0.05293  -0.00000  -0.00000
   7  O     py      -0.00000  -0.00000   0.00000  -0.00000
   8  O     pz       0.00000   0.00000  -0.04587   0.08736
   9  O     px      -0.12543   0.34028   0.00000  -0.00000
  10  O     py       0.00000   0.00000  -0.00000   0.00000
  11  O     pz       0.00000   0.00000   0.14203   0.18594
  12  O     px      -0.53005  -0.87941  -0.00000   0.00000
  13  O     py      -0.00000  -0.00000   0.00000  -0.00000
  14  O     pz      -0.00000  -0.00000  -0.10571  -0.91036
  15  O     px      -1.19586   1.82114  -0.00000  -0.00000
  16  O     py       0.00000   0.00000  -0.00000   0.00000
  17  O     pz       0.00000  -0.00000   2.89653  -1.14032
  18  O     dxx      0.00000  -0.00000  -0.03501   0.01563
  19  O     dxy      0.00000   0.00000   0.00000   0.00000
  20  O     dyy     -0.00000  -0.00000  -0.00977  -0.01065
  21  O     dxz      0.00796   0.00097   0.00000  -0.00000
  22  O     dyz      0.00000   0.00000   0.00000  -0.00000
  23  O     dzz      0.00000  -0.00000  -0.03068   0.01000
  24  O     dxx     -0.00000  -0.00000   0.08481  -0.02435
  25  O     dxy     -0.00000  -0.00000  -0.00000  -0.00000
  26  O     dyy      0.00000  -0.00000  -0.05294  -0.01475
  27  O     dxz     -0.01110   0.06674  -0.00000   0.00000
  28  O     dyz     -0.00000  -0.00000  -0.00000   0.00000
  29  O     dzz     -0.00000  -0.00000   0.05593  -0.06747
  30  O     dxx     -0.00000   0.00000  -1.11784   0.53328
  31  O     dxy      0.00000   0.00000   0.00000   0.00000
  32  O     dyy      0.00000  -0.00000  -0.04524  -0.23519
  33  O     dxz      0.33485  -0.21866   0.00000  -0.00000
  34  O     dyz     -0.00000   0.00000   0.00000  -0.00000
  35  O     dzz      0.00000   0.00000  -0.73927   0.39658
  36  O     fxxx    -0.00601   0.02455   0.00000  -0.00000
  37  O     fxxy     0.00000   0.00000  -0.00000   0.00000
  38  O     fxyy    -0.00225   0.01599   0.00000  -0.00000
  39  O     fyyy     0.00000   0.00000  -0.00000   0.00000
  40  O     fxxz     0.00000   0.00000   0.00823  -0.00776
  41  O     fxyz     0.00000  -0.00000   0.00000   0.00000
  42  O     fyyz     0.00000   0.00000   0.01635  -0.00121
  43  O     fxzz    -0.00252   0.00489   0.00000  -0.00000
  44  O     fyzz     0.00000   0.00000  -0.00000   0.00000
  45  O     fzzz     0.00000   0.00000   0.02944  -0.00056
  46  O     fxxx    -0.07782   0.51688   0.00000  -0.00000
  47  O     fxxy     0.00000   0.00000  -0.00000   0.00000
  48  O     fxyy     0.00783   0.22088   0.00000  -0.00000
  49  O     fyyy     0.00000   0.00000  -0.00000   0.00000
  50  O     fxxz     0.00000   0.00000   0.40815  -0.13582
  51  O     fxyz    -0.00000   0.00000  -0.00000  -0.00000
  52  O     fyyz     0.00000   0.00000   0.16166   0.07365
  53  O     fxzz    -0.06909   0.27496   0.00000  -0.00000
  54  O     fyzz     0.00000   0.00000  -0.00000   0.00000
  55  O     fzzz     0.00000   0.00000   0.47657   0.02011
  56  O     gxxxx    0.00000   0.00000  -0.10674   0.05851
  57  O     gxxxy    0.00000   0.00000   0.00000   0.00000
  58  O     gxxyy    0.00000  -0.00000  -0.01252  -0.00212
  59  O     gxyyy    0.00000   0.00000   0.00000  -0.00000
  60  O     gyyyy   -0.00000  -0.00000   0.01631  -0.04973
  61  O     gxxxz    0.03088  -0.00706   0.00000  -0.00000
  62  O     gxxyz    0.00000   0.00000   0.00000  -0.00000
  63  O     gxyyz    0.00852   0.00223   0.00000  -0.00000
  64  O     gyyyz    0.00000   0.00000   0.00000  -0.00000
  65  O     gxxzz    0.00000   0.00000  -0.07439   0.04648
  66  O     gxyzz    0.00000   0.00000   0.00000   0.00000
  67  O     gyyzz    0.00000  -0.00000  -0.00713  -0.01060
  68  O     gxzzz    0.02644  -0.01003   0.00000  -0.00000
  69  O     gyzzz    0.00000   0.00000   0.00000  -0.00000
  70  O     gzzzz    0.00000   0.00000  -0.05345   0.03314
  71  H 1   s       -0.01355   0.00440   0.00293  -0.00032
  72  H 1   s       -0.35305  -0.15428   0.35786  -0.71670
  73  H 1   s       -0.10763   2.78101   4.24441  -0.02664
  74  H 1   s       -2.28694  -0.66968  -0.22663  -1.00003
  75  H 1   px      -0.00173  -0.09900  -0.20802  -0.07696
  76  H 1   py      -0.00000  -0.00000  -0.00000   0.00000
  77  H 1   pz       0.00537  -0.11626  -0.01557   0.00808
  78  H 1   px      -0.07980   0.41068   1.02364  -0.00631
  79  H 1   py       0.00000   0.00000   0.00000  -0.00000
  80  H 1   pz      -0.07877   0.42829   0.28016  -0.21855
  81  H 1   px      -0.36110   0.01412   0.90261  -1.23196
  82  H 1   py      -0.00000  -0.00000  -0.00000   0.00000
  83  H 1   pz      -0.28972  -0.11896   0.88609  -0.65317
  84  H 1   dxx     -0.01286  -0.01609   0.00688  -0.02965
  85  H 1   dxy     -0.00000  -0.00000   0.00000  -0.00000
  86  H 1   dyy     -0.00650  -0.01072  -0.00405  -0.01000
  87  H 1   dxz     -0.00457  -0.00520   0.00794  -0.01327
  88  H 1   dyz     -0.00000   0.00000   0.00000  -0.00000
  89  H 1   dzz     -0.00924  -0.01448   0.00084  -0.02156
  90  H 1   dxx     -0.18481  -0.16153   0.11821  -0.47683
  91  H 1   dxy     -0.00000   0.00000   0.00000  -0.00000
  92  H 1   dyy     -0.09818  -0.20000  -0.11316  -0.21011
  93  H 1   dxz     -0.08245   0.00919   0.20795  -0.19816
  94  H 1   dyz     -0.00000  -0.00000   0.00000   0.00000
  95  H 1   dzz     -0.14662  -0.21940   0.04017  -0.31252
  96  H 1   fxxx    -0.02140  -0.14411  -0.28865  -0.15220
  97  H 1   fxxy    -0.00000  -0.00000  -0.00000   0.00000
  98  H 1   fxyy    -0.00379  -0.06000  -0.13517  -0.04620
  99  H 1   fyyy    -0.00000  -0.00000  -0.00000   0.00000
 100  H 1   fxxz    -0.01275  -0.08689   0.00994  -0.02973
 101  H 1   fxyz    -0.00000   0.00000   0.00000   0.00000
 102  H 1   fyyz     0.00117  -0.07020  -0.01033   0.00798
 103  H 1   fxzz    -0.01376  -0.07696  -0.12115  -0.06877
 104  H 1   fyzz    -0.00000  -0.00000  -0.00000   0.00000
 105  H 1   fzzz    -0.00245  -0.17113  -0.01165   0.00366
 106  H 2   s        0.01355  -0.00440   0.00293  -0.00032
 107  H 2   s        0.35305   0.15428   0.35786  -0.71670
 108  H 2   s        0.10763  -2.78101   4.24441  -0.02664
 109  H 2   s        2.28694   0.66968  -0.22663  -1.00003
 110  H 2   px      -0.00173  -0.09900   0.20802   0.07696
 111  H 2   py       0.00000  -0.00000  -0.00000   0.00000
 112  H 2   pz      -0.00537   0.11626  -0.01557   0.00808
 113  H 2   px      -0.07980   0.41068  -1.02364   0.00631
 114  H 2   py      -0.00000   0.00000   0.00000  -0.00000
 115  H 2   pz       0.07877  -0.42829   0.28016  -0.21855
 116  H 2   px      -0.36110   0.01412  -0.90261   1.23196
 117  H 2   py       0.00000  -0.00000  -0.00000   0.00000
 118  H 2   pz       0.28972   0.11896   0.88609  -0.65317
 119  H 2   dxx      0.01286   0.01609   0.00688  -0.02965
 120  H 2   dxy      0.00000  -0.00000  -0.00000   0.00000
 121  H 2   dyy      0.00650   0.01072  -0.00405  -0.01000
 122  H 2   dxz     -0.00457  -0.00520  -0.00794   0.01327
 123  H 2   dyz      0.00000   0.00000   0.00000  -0.00000
 124  H 2   dzz      0.00924   0.01448   0.00084  -0.02156
 125  H 2   dxx      0.18481   0.16153   0.11821  -0.47683
 126  H 2   dxy      0.00000  -0.00000  -0.00000   0.00000
 127  H 2   dyy      0.09818   0.20000  -0.11316  -0.21011
 128  H 2   dxz     -0.08245   0.00919  -0.20795   0.19816
 129  H 2   dyz     -0.00000  -0.00000   0.00000  -0.00000
 130  H 2   dzz      0.14662   0.21940   0.04017  -0.31252
 131  H 2   fxxx    -0.02140  -0.14411   0.28865   0.15220
 132  H 2   fxxy     0.00000  -0.00000  -0.00000   0.00000
 133  H 2   fxyy    -0.00379  -0.06000   0.13517   0.04620
 134  H 2   fyyy     0.00000  -0.00000  -0.00000   0.00000
 135  H 2   fxxz     0.01275   0.08689   0.00994  -0.02973
 136  H 2   fxyz     0.00000  -0.00000  -0.00000   0.00000
 137  H 2   fyyz    -0.00117   0.07020  -0.01033   0.00798
 138  H 2   fxzz    -0.01376  -0.07696   0.12115   0.06877
 139  H 2   fyzz     0.00000  -0.00000  -0.00000   0.00000
 140  H 2   fzzz     0.00245   0.17113  -0.01165   0.00366
 
          Ground-State Mulliken Net Atomic Charges

     Atom                 Charge (a.u.)
  ----------------------------------------
      1 O                    -0.499209
      2 H                     0.249604
      3 H                     0.249604
  ----------------------------------------
  Sum of atomic charges =     0.000000

 -----------------------------------------------------------------
                    Cartesian Multipole Moments
 -----------------------------------------------------------------
    Charge (ESU x 10^10)
                 0.0000
    Dipole Moment (Debye)
         X       0.0000      Y       0.0000      Z      -2.0030
       Tot       2.0030
    Quadrupole Moments (Debye-Ang)
        XX      -4.2054     XY       0.0000     YY      -7.4376
        XZ      -0.0000     YZ      -0.0000     ZZ      -6.1623
    Octopole Moments (Debye-Ang^2)
       XXX       0.0000    XXY      -0.0000    XYY      -0.0000
       YYY       0.0000    XXZ      -1.3987    XYZ      -0.0000
       YYZ      -0.2799    XZZ      -0.0000    YZZ      -0.0000
       ZZZ      -1.1907
    Hexadecapole Moments (Debye-Ang^3)
      XXXX      -5.7866   XXXY       0.0000   XXYY      -2.3097
      XYYY       0.0000   YYYY      -6.0926   XXXZ      -0.0000
      XXYZ      -0.0000   XYYZ       0.0000   YYYZ      -0.0000
      XXZZ      -1.7428   XYZZ      -0.0000   YYZZ      -2.2088
      XZZZ      -0.0000   YZZZ      -0.0000   ZZZZ      -6.8207
 -----------------------------------------------------------------
 Total job time:  6.36s(wall), 4.06s(cpu) 
 Tue Mar 31 15:10:52 2026

        *************************************************************
        *                                                           *
        *  Thank you very much for using Q-Chem.  Have a nice day.  *
        *                                                           *
        *************************************************************


