Jobname.Temp
SP        R                             cc-pVTZ             
Number of atoms                            I                3
Charge                                     I                0
Multiplicity                               I                1
Number of electrons                        I               10
Number of alpha electrons                  I                5
Number of beta electrons                   I                5
Atomic numbers                             I   N=           3
           8           1           1
Current cartesian coordinates              R   N=           9
  0.00000000E+00  0.00000000E+00  2.21664874E-01 -1.43090062E+00 -8.76173933E-17
 -8.86659498E-01  1.43090062E+00  8.76173933E-17 -8.86659498E-01
Nuclear charges                            R   N=           3
  8.00000000E+00  1.00000000E+00  1.00000000E+00
Number of basis functions                  I               65
Number of contracted shells                I               22
Number of primitive shells                 I               40
Highest angular momentum                   I                3
Largest degree of contraction              I                7
Shell types                                I   N=          22
           0           0           0           0           1           1
           1           2           2           3           0           0
           0           1           1           2           0           0
           0           1           1           2
Number of primitives per shell             I   N=          22
           7           7           1           1           3           1
           1           1           1           1           3           1
           1           1           1           1           3           1
           1           1           1           1
Shell to atom map                          I   N=          22
           1           1           1           1           1           1
           1           1           1           1           2           2
           2           2           2           2           3           3
           3           3           3           3
Primitive exponents                        R   N=          40
  1.53300000E+04  2.29900000E+03  5.22400000E+02  1.47300000E+02  4.75500000E+01
  1.67600000E+01  6.20700000E+00  1.53300000E+04  2.29900000E+03  1.47300000E+02
  4.75500000E+01  1.67600000E+01  6.20700000E+00  6.88200000E-01  1.75200000E+00
  2.38400000E-01  3.44600000E+01  7.74900000E+00  2.28000000E+00  7.15600000E-01
  2.14000000E-01  2.31400000E+00  6.45000000E-01  1.42800000E+00  3.38700000E+01
  5.09500000E+00  1.15900000E+00  3.25800000E-01  1.02700000E-01  1.40700000E+00
  3.88000000E-01  1.05700000E+00  3.38700000E+01  5.09500000E+00  1.15900000E+00
  3.25800000E-01  1.02700000E-01  1.40700000E+00  3.88000000E-01  1.05700000E+00
Contraction coefficients                   R   N=          40
  5.19807566E-04  4.02025773E-03  2.07128269E-02  8.10105552E-02  2.35962988E-01
  4.42653444E-01  3.57064420E-01  2.39729119E-06  8.58121279E-06 -1.05276498E-03
 -1.00458896E-02 -6.64857111E-02 -1.70398750E-01  1.07306114E+00  1.00000000E+00
  1.00000000E+00  4.11634896E-02  2.57762836E-01  8.02419274E-01  1.00000000E+00
  1.00000000E+00  1.00000000E+00  1.00000000E+00  1.00000000E+00  2.54948632E-02
  1.90362766E-01  8.52162022E-01  1.00000000E+00  1.00000000E+00  1.00000000E+00
  1.00000000E+00  1.00000000E+00  2.54948632E-02  1.90362766E-01  8.52162022E-01
  1.00000000E+00  1.00000000E+00  1.00000000E+00  1.00000000E+00  1.00000000E+00
Coordinates of each shell                  R   N=          66
  0.00000000E+00  0.00000000E+00  2.21664874E-01  0.00000000E+00  0.00000000E+00
  2.21664874E-01  0.00000000E+00  0.00000000E+00  2.21664874E-01  0.00000000E+00
  0.00000000E+00  2.21664874E-01  0.00000000E+00  0.00000000E+00  2.21664874E-01
  0.00000000E+00  0.00000000E+00  2.21664874E-01  0.00000000E+00  0.00000000E+00
  2.21664874E-01  0.00000000E+00  0.00000000E+00  2.21664874E-01  0.00000000E+00
  0.00000000E+00  2.21664874E-01  0.00000000E+00  0.00000000E+00  2.21664874E-01
 -1.43090062E+00 -8.76173933E-17 -8.86659498E-01 -1.43090062E+00 -8.76173933E-17
 -8.86659498E-01 -1.43090062E+00 -8.76173933E-17 -8.86659498E-01 -1.43090062E+00
 -8.76173933E-17 -8.86659498E-01 -1.43090062E+00 -8.76173933E-17 -8.86659498E-01
 -1.43090062E+00 -8.76173933E-17 -8.86659498E-01  1.43090062E+00  8.76173933E-17
 -8.86659498E-01  1.43090062E+00  8.76173933E-17 -8.86659498E-01  1.43090062E+00
  8.76173933E-17 -8.86659498E-01  1.43090062E+00  8.76173933E-17 -8.86659498E-01
  1.43090062E+00  8.76173933E-17 -8.86659498E-01  1.43090062E+00  8.76173933E-17
 -8.86659498E-01
Overlap Matrix                             R   N=        2145
  1.00000000E+00  1.04712649E-01  1.00000000E+00  5.29767968E-01  7.55463327E-01
  1.00000000E+00  1.47812726E-01  8.29541310E-01  5.23316844E-01  1.00000000E+00
  0.00000000E+00  0.00000000E+00  0.00000000E+00  0.00000000E+00  1.00000000E+00
  0.00000000E+00  0.00000000E+00  0.00000000E+00  0.00000000E+00  0.00000000E+00
  1.00000000E+00  3.77772391E-17  6.32058720E-17  0.00000000E+00  3.10334150E-17
  0.00000000E+00  0.00000000E+00  1.00000000E+00  0.00000000E+00  0.00000000E+00
  0.00000000E+00  0.00000000E+00  6.00183926E-01  0.00000000E+00  0.00000000E+00
  1.00000000E+00  0.00000000E+00  0.00000000E+00  0.00000000E+00  0.00000000E+00
  0.00000000E+00  6.00183926E-01  0.00000000E+00  0.00000000E+00  1.00000000E+00
  3.86983871E-18 -7.22959779E-19 -4.05977137E-17  0.00000000E+00  0.00000000E+00
  0.00000000E+00  6.00183926E-01  0.00000000E+00  0.00000000E+00  1.00000000E+00
  0.00000000E+00  0.00000000E+00  0.00000000E+00  0.00000000E+00  2.04173581E-01
  0.00000000E+00  0.00000000E+00  6.50413929E-01  0.00000000E+00  0.00000000E+00
  1.00000000E+00  0.00000000E+00  0.00000000E+00  0.00000000E+00  0.00000000E+00
  0.00000000E+00  2.04173581E-01  0.00000000E+00  0.00000000E+00  6.50413929E-01
  0.00000000E+00  0.00000000E+00  1.00000000E+00 -1.97650823E-18  9.41165832E-19
  0.00000000E+00  0.00000000E+00  0.00000000E+00  0.00000000E+00  2.04173581E-01
  0.00000000E+00  0.00000000E+00  6.50413929E-01  0.00000000E+00  0.00000000E+00
  1.00000000E+00  1.30289166E-01  6.86250154E-01  6.47712641E-01  4.64791397E-01
  0.00000000E+00  0.00000000E+00  4.76131466E-17  0.00000000E+00  0.00000000E+00
  0.00000000E+00  0.00000000E+00  0.00000000E+00  0.00000000E+00  1.00000000E+00
  1.30289166E-01  6.86250154E-01  6.47712641E-01  4.64791397E-01  0.00000000E+00
  0.00000000E+00  4.76131466E-17  0.00000000E+00  0.00000000E+00  0.00000000E+00
  0.00000000E+00  0.00000000E+00  0.00000000E+00  3.33333333E-01  1.00000000E+00
  1.30289166E-01  6.86250154E-01  6.47712641E-01  4.64791397E-01  0.00000000E+00
  0.00000000E+00  1.42839440E-16  0.00000000E+00  0.00000000E+00  0.00000000E+00
  0.00000000E+00  0.00000000E+00  0.00000000E+00  3.33333333E-01  3.33333333E-01
  1.00000000E+00  0.00000000E+00  0.00000000E+00  0.00000000E+00  0.00000000E+00
  0.00000000E+00  0.00000000E+00  0.00000000E+00  0.00000000E+00  0.00000000E+00
  0.00000000E+00  0.00000000E+00  0.00000000E+00  0.00000000E+00  0.00000000E+00
  0.00000000E+00  0.00000000E+00  1.00000000E+00  0.00000000E+00  0.00000000E+00
  0.00000000E+00  0.00000000E+00  8.24683890E-17  0.00000000E+00  0.00000000E+00
  0.00000000E+00  0.00000000E+00  0.00000000E+00  0.00000000E+00  0.00000000E+00
  0.00000000E+00  0.00000000E+00  0.00000000E+00  0.00000000E+00  0.00000000E+00
  1.00000000E+00  0.00000000E+00  0.00000000E+00  0.00000000E+00  0.00000000E+00
  0.00000000E+00  8.24683890E-17  0.00000000E+00  0.00000000E+00  0.00000000E+00
  0.00000000E+00  0.00000000E+00  0.00000000E+00  0.00000000E+00  0.00000000E+00
  0.00000000E+00  0.00000000E+00  0.00000000E+00  0.00000000E+00  1.00000000E+00
  2.21429544E-02  5.90040505E-01  2.59551984E-01  7.05228839E-01  0.00000000E+00
  0.00000000E+00 -1.41359057E-18  0.00000000E+00  0.00000000E+00  0.00000000E+00
  0.00000000E+00  0.00000000E+00  1.79125908E-17  5.11638218E-01  1.70546073E-01
  1.70546073E-01  0.00000000E+00  0.00000000E+00  0.00000000E+00  1.00000000E+00
  2.21429544E-02  5.90040505E-01  2.59551984E-01  7.05228839E-01  0.00000000E+00
  0.00000000E+00 -1.41359057E-18  0.00000000E+00  0.00000000E+00  0.00000000E+00
  0.00000000E+00  0.00000000E+00  1.79125908E-17  1.70546073E-01  5.11638218E-01
  1.70546073E-01  0.00000000E+00  0.00000000E+00  0.00000000E+00  3.33333333E-01
  1.00000000E+00  2.21429544E-02  5.90040505E-01  2.59551984E-01  7.05228839E-01
  0.00000000E+00  0.00000000E+00 -4.24077172E-18  0.00000000E+00  0.00000000E+00
  0.00000000E+00  0.00000000E+00  0.00000000E+00  5.37377723E-17  1.70546073E-01
  1.70546073E-01  5.11638218E-01  0.00000000E+00  0.00000000E+00  0.00000000E+00
  3.33333333E-01  3.33333333E-01  1.00000000E+00  0.00000000E+00  0.00000000E+00
  0.00000000E+00  0.00000000E+00  0.00000000E+00  0.00000000E+00  0.00000000E+00
  0.00000000E+00  0.00000000E+00  0.00000000E+00  0.00000000E+00  0.00000000E+00
  0.00000000E+00  0.00000000E+00  0.00000000E+00  0.00000000E+00  5.11638218E-01
  0.00000000E+00  0.00000000E+00  0.00000000E+00  0.00000000E+00  0.00000000E+00
  1.00000000E+00  0.00000000E+00  0.00000000E+00  0.00000000E+00  0.00000000E+00
 -2.44841069E-18  0.00000000E+00  0.00000000E+00  0.00000000E+00  0.00000000E+00
  0.00000000E+00  3.10255173E-17  0.00000000E+00  0.00000000E+00  0.00000000E+00
  0.00000000E+00  0.00000000E+00  0.00000000E+00  5.11638218E-01  0.00000000E+00
  0.00000000E+00  0.00000000E+00  0.00000000E+00  0.00000000E+00  1.00000000E+00
  0.00000000E+00  0.00000000E+00  0.00000000E+00  0.00000000E+00  0.00000000E+00
 -2.44841069E-18  0.00000000E+00  0.00000000E+00  0.00000000E+00  0.00000000E+00
  0.00000000E+00  3.10255173E-17  0.00000000E+00  0.00000000E+00  0.00000000E+00
  0.00000000E+00  0.00000000E+00  0.00000000E+00  5.11638218E-01  0.00000000E+00
  0.00000000E+00  0.00000000E+00  0.00000000E+00  0.00000000E+00  1.00000000E+00
  0.00000000E+00  0.00000000E+00  0.00000000E+00  0.00000000E+00  4.75401393E-01
  0.00000000E+00  0.00000000E+00  8.91566768E-01  0.00000000E+00  0.00000000E+00
  5.01222154E-01  0.00000000E+00  0.00000000E+00  0.00000000E+00  0.00000000E+00
  0.00000000E+00  0.00000000E+00 -4.64485264E-17  0.00000000E+00  0.00000000E+00
  0.00000000E+00  0.00000000E+00  0.00000000E+00  0.00000000E+00  0.00000000E+00
  1.00000000E+00  0.00000000E+00  0.00000000E+00  0.00000000E+00  0.00000000E+00
  0.00000000E+00  4.75401393E-01  0.00000000E+00  0.00000000E+00  8.91566768E-01
  0.00000000E+00  0.00000000E+00  5.01222154E-01  0.00000000E+00  0.00000000E+00
  0.00000000E+00  0.00000000E+00  0.00000000E+00  0.00000000E+00 -4.64485264E-17
  0.00000000E+00  0.00000000E+00  0.00000000E+00  0.00000000E+00  0.00000000E+00
  0.00000000E+00  0.00000000E+00  1.00000000E+00  4.99577434E-18 -2.26732489E-18
  0.00000000E+00  5.16060788E-17  0.00000000E+00  0.00000000E+00  4.75401393E-01
  0.00000000E+00  0.00000000E+00  8.91566768E-01  0.00000000E+00  0.00000000E+00
  5.01222154E-01 -2.68170692E-17 -2.68170692E-17 -1.34085346E-16  0.00000000E+00
  0.00000000E+00  0.00000000E+00  0.00000000E+00  0.00000000E+00  0.00000000E+00
  0.00000000E+00  0.00000000E+00  0.00000000E+00  0.00000000E+00  0.00000000E+00
  1.00000000E+00  0.00000000E+00  0.00000000E+00  0.00000000E+00  0.00000000E+00
  3.54343277E-01  0.00000000E+00  0.00000000E+00  6.64534633E-01  0.00000000E+00
  0.00000000E+00  3.73588936E-01  0.00000000E+00  0.00000000E+00  0.00000000E+00
  0.00000000E+00  0.00000000E+00  0.00000000E+00 -3.46206875E-17  0.00000000E+00
  0.00000000E+00  0.00000000E+00  0.00000000E+00  0.00000000E+00  0.00000000E+00
  0.00000000E+00  4.47213595E-01  0.00000000E+00  0.00000000E+00  1.00000000E+00
  0.00000000E+00  0.00000000E+00  0.00000000E+00  0.00000000E+00  0.00000000E+00
  3.54343277E-01  0.00000000E+00  0.00000000E+00  6.64534633E-01  0.00000000E+00
  0.00000000E+00  3.73588936E-01  0.00000000E+00  0.00000000E+00  0.00000000E+00
  0.00000000E+00  0.00000000E+00  0.00000000E+00 -3.46206875E-17  0.00000000E+00
  0.00000000E+00  0.00000000E+00  0.00000000E+00  0.00000000E+00  0.00000000E+00
  0.00000000E+00  4.47213595E-01  0.00000000E+00  0.00000000E+00  1.00000000E+00
  3.72363034E-18 -1.68996419E-18  0.00000000E+00  3.84649001E-17  0.00000000E+00
  0.00000000E+00  3.54343277E-01  0.00000000E+00  0.00000000E+00  6.64534633E-01
  0.00000000E+00  0.00000000E+00  3.73588936E-01 -5.99647897E-17 -1.99882632E-17
 -5.99647897E-17  0.00000000E+00  0.00000000E+00  0.00000000E+00  0.00000000E+00
  0.00000000E+00  0.00000000E+00  0.00000000E+00  0.00000000E+00  0.00000000E+00
  0.00000000E+00  0.00000000E+00  4.47213595E-01  0.00000000E+00  0.00000000E+00
  1.00000000E+00  0.00000000E+00  0.00000000E+00  0.00000000E+00  0.00000000E+00
  3.54343277E-01  0.00000000E+00  0.00000000E+00  6.64534633E-01  0.00000000E+00
  0.00000000E+00  3.73588936E-01  0.00000000E+00  0.00000000E+00  0.00000000E+00
  0.00000000E+00  0.00000000E+00  0.00000000E+00 -1.03862062E-16  0.00000000E+00
  0.00000000E+00  0.00000000E+00  0.00000000E+00  0.00000000E+00  0.00000000E+00
  0.00000000E+00  4.47213595E-01  0.00000000E+00  0.00000000E+00  3.33333333E-01
  0.00000000E+00  0.00000000E+00  1.00000000E+00  0.00000000E+00  0.00000000E+00
  0.00000000E+00  0.00000000E+00  0.00000000E+00  3.54343277E-01  0.00000000E+00
  0.00000000E+00  6.64534633E-01  0.00000000E+00  0.00000000E+00  3.73588936E-01
  0.00000000E+00  0.00000000E+00  0.00000000E+00  0.00000000E+00  0.00000000E+00
  0.00000000E+00 -1.03862062E-16  0.00000000E+00  0.00000000E+00  0.00000000E+00
  0.00000000E+00  0.00000000E+00  0.00000000E+00  0.00000000E+00  4.47213595E-01
  0.00000000E+00  0.00000000E+00  3.33333333E-01  0.00000000E+00  0.00000000E+00
  1.00000000E+00  3.72363034E-18 -1.68996419E-18  0.00000000E+00  3.84649001E-17
  0.00000000E+00  0.00000000E+00  3.54343277E-01  0.00000000E+00  0.00000000E+00
  6.64534633E-01  0.00000000E+00  0.00000000E+00  3.73588936E-01 -1.99882632E-17
 -5.99647897E-17 -5.99647897E-17  0.00000000E+00  0.00000000E+00  0.00000000E+00
  0.00000000E+00  0.00000000E+00  0.00000000E+00  0.00000000E+00  0.00000000E+00
  0.00000000E+00  0.00000000E+00  0.00000000E+00  4.47213595E-01  0.00000000E+00
  0.00000000E+00  3.33333333E-01  0.00000000E+00  0.00000000E+00  1.00000000E+00
  0.00000000E+00  0.00000000E+00  0.00000000E+00  0.00000000E+00  0.00000000E+00
  0.00000000E+00  0.00000000E+00  0.00000000E+00  0.00000000E+00  0.00000000E+00
  0.00000000E+00  0.00000000E+00  0.00000000E+00  0.00000000E+00  0.00000000E+00
  0.00000000E+00 -5.99647897E-17  0.00000000E+00  0.00000000E+00  0.00000000E+00
  0.00000000E+00  0.00000000E+00  0.00000000E+00  0.00000000E+00  0.00000000E+00
  0.00000000E+00  0.00000000E+00  0.00000000E+00  0.00000000E+00  0.00000000E+00
  0.00000000E+00  0.00000000E+00  0.00000000E+00  0.00000000E+00  1.00000000E+00
  1.24160538E-02  2.22093222E-01  8.62073827E-02  3.15736906E-01 -8.09424117E-02
 -4.95629327E-18 -6.26950931E-02 -3.15223085E-01 -1.93018471E-17 -2.44160512E-01
 -3.57103660E-01 -2.18662927E-17 -2.76599705E-01  1.28816089E-01  4.81798589E-02
  9.65575391E-02  8.55207894E-18  1.08180319E-01  6.62413404E-18  3.82434137E-01
  8.68661801E-02  2.64192080E-01  3.13472057E-17  3.96529396E-01  2.42804228E-17
 -2.54971119E-01 -8.54554633E-18 -1.61729473E-01 -1.04021407E-01 -2.21716143E-17
 -2.80461899E-01 -2.58849540E-01 -1.58499630E-17 -8.05712564E-02 -2.11999066E-17
  1.00000000E+00  6.57729950E-02  4.48046015E-01  2.52156666E-01  6.25509263E-01
 -9.92113891E-02 -6.07494551E-18 -7.68455886E-02 -3.24817870E-01 -1.98893582E-17
 -2.51592288E-01 -5.06439834E-01 -3.10104961E-17 -3.92270157E-01  2.46790385E-01
  2.11899637E-01  2.32832330E-01  3.70042641E-18  4.68088883E-02  2.86621776E-18
  5.01608103E-01  3.46477774E-01  4.39548165E-01  1.64527386E-17  2.08120448E-01
  1.27437020E-17 -2.49591650E-01 -1.41168424E-17 -1.87423034E-01 -1.71838493E-01
 -1.31298614E-17 -1.66087404E-01 -1.97389400E-01 -1.20866148E-17 -1.33099942E-01
 -3.49856853E-18  7.06285045E-01  1.00000000E+00  5.76385636E-02  4.22666548E-01
  2.25135196E-01  6.94642587E-01 -3.01794355E-02 -1.84795745E-18 -2.33759098E-02
 -1.22100278E-01 -7.47648575E-18 -9.45745024E-02 -3.09813666E-01 -1.89706157E-17
 -2.39970569E-01  2.08960082E-01  2.05291170E-01  2.07492333E-01  3.89115775E-19
  4.92215622E-03  3.01395143E-19  4.50247344E-01  4.25659268E-01  4.40410876E-01
  2.60775042E-18  3.29869817E-02  2.01987008E-18 -8.65605838E-02 -5.25091995E-18
 -6.67968056E-02 -6.39172805E-02 -4.02423766E-18 -5.09049688E-02 -6.49992945E-02
 -3.98005890E-18 -4.95080362E-02 -1.48155210E-19  3.73527845E-01  7.88878095E-01
  1.00000000E+00  2.54635008E-02  2.30909546E-01  1.44775846E-01  1.48981481E-01
 -1.19791979E-01 -1.01227371E-17 -1.28048505E-01 -1.73185316E-01 -2.18568904E-17
 -2.76480769E-01  4.91257375E-02 -9.55861821E-18 -1.20912631E-01  1.61697928E-01
  8.23928507E-02  1.90084448E-01  1.37241685E-17  1.73605147E-01  1.47457168E-17
  4.78308621E-02  8.13755247E-02  2.74247178E-01  1.52688396E-17  1.93144608E-01
  2.64090315E-17 -1.38478341E-01 -1.36042759E-17 -2.70496377E-01 -1.08538133E-01
 -1.91532167E-17 -2.42280398E-01 -2.94738805E-01 -2.75355749E-17 -1.28267235E-01
 -2.54956046E-17  3.28820930E-18  3.63892821E-16  0.00000000E+00  1.00000000E+00
  1.55918974E-18  1.41391318E-17  8.86496379E-18  9.12248470E-18 -1.01227371E-17
  4.55248640E-02 -7.84070961E-18 -2.18568904E-17  1.83764792E-01 -1.69295645E-17
 -9.55861821E-18  2.05229819E-01 -7.40376331E-18  1.60363764E-17 -1.09012685E-18
  1.16393155E-17 -8.67722581E-02  1.47457168E-17 -6.72106833E-02  2.46677693E-17
 -1.67561599E-17  1.67927964E-17 -3.07460134E-01  2.64090315E-17 -2.38147608E-01
 -2.65712382E-17  7.65554991E-02 -1.65631261E-17  9.84179242E-18  2.20225051E-01
 -3.03125985E-17 -2.75355749E-17  1.54951259E-01  7.62309991E-18  2.18898230E-01
 -2.45610654E-32  4.04002188E-32  0.00000000E+00  0.00000000E+00  1.00000000E+00
  1.97231157E-02  1.78854264E-01  1.12138185E-01  1.15395719E-01 -1.28048505E-01
 -7.84070961E-18 -5.36569221E-02 -2.76480769E-01 -1.69295645E-17 -3.03873091E-02
 -1.20912631E-01 -7.40376331E-18  1.11575226E-01  2.02853636E-01  6.38185512E-02
  6.96243928E-02  1.47457168E-17  9.97550593E-02  6.10823570E-18  3.12037243E-01
  6.30305668E-02 -6.25671293E-02  2.64090315E-17  2.66033688E-02  1.62898652E-18
 -3.36115351E-01 -1.05373848E-17 -1.62787661E-03 -1.28267235E-01 -3.03125985E-17
 -1.63216986E-01 -9.55519130E-02 -5.85086722E-18 -4.22901062E-02 -1.28252055E-17
  1.64410465E-18  1.81946410E-16  9.41227681E-17  0.00000000E+00  0.00000000E+00
  1.00000000E+00  1.05029502E-01  4.76925314E-01  3.48701881E-01  4.00216802E-01
 -4.52540672E-02 -1.02652324E-17 -1.29851013E-01 -1.18196388E-02 -2.46553955E-17
 -3.11880721E-01  2.48369562E-01 -1.97375171E-17 -2.49671560E-01  2.66571154E-01
  2.98577661E-01  3.39447147E-01  1.91513466E-18  2.42256742E-02  5.59607147E-18
  1.36176750E-01  3.45910535E-01  4.69759015E-01 -1.75118818E-19 -2.21518179E-03
  1.69580048E-17 -1.39914584E-02 -2.08719615E-17 -2.81945614E-01 -5.07115788E-02
 -1.23841649E-17 -1.56654647E-01 -6.10396329E-02 -1.87254298E-17 -1.96790246E-01
 -1.41417311E-18  0.00000000E+00  0.00000000E+00 -2.03005880E-16  6.14923564E-01
  0.00000000E+00  0.00000000E+00  1.00000000E+00  6.43120218E-18  2.92032530E-17
  2.13518321E-17  2.45062113E-17 -1.02652324E-17  1.22389900E-01 -7.95108137E-18
 -2.46553955E-17  3.90833527E-01 -1.90971863E-17 -1.97375171E-17  5.70707678E-01
 -1.52879738E-17  2.24538492E-17  1.21515352E-17  2.07851431E-17 -8.67134189E-02
  5.59607147E-18 -6.71651085E-02  3.38211920E-17 -4.30185953E-18  2.87644437E-17
 -3.60409663E-01  1.69580048E-17 -2.79160417E-01 -2.32337367E-17  2.72828277E-01
 -1.72641897E-17 -7.10307501E-18  2.72386067E-01 -1.61404703E-17 -1.87254298E-17
  2.44769842E-01 -5.50178750E-18  9.26120960E-02 -1.11172920E-33  1.52680509E-32
  0.00000000E+00  0.00000000E+00  6.14923564E-01  0.00000000E+00  0.00000000E+00
  1.00000000E+00  8.13520906E-02  3.69409267E-01  2.70091988E-01  3.09993600E-01
 -1.29851013E-01 -7.95108137E-18  2.18119565E-02 -3.11880721E-01 -1.90971863E-17
  1.49261891E-01 -2.49671560E-01 -1.52879738E-17  3.77321030E-01  2.84032055E-01
  2.31267562E-01  1.85368016E-01  5.59607147E-18 -1.59253919E-02 -9.75149008E-19
  4.27824317E-01  2.67929911E-01  4.15118243E-02  1.69580048E-17 -1.45897803E-01
 -8.93366390E-18 -2.93897315E-01 -1.61666738E-17  1.10008230E-01 -1.96790246E-01
 -1.61404703E-17  6.82156853E-02 -1.29929830E-01 -7.95590749E-18  5.09275150E-02
  1.83354054E-18  1.90284824E-16  1.37522377E-16  0.00000000E+00  0.00000000E+00
  0.00000000E+00  6.14923564E-01  0.00000000E+00  2.12384298E-48  1.00000000E+00
  7.37582889E-02  3.66847040E-01  2.61731449E-01  4.00980992E-01 -1.16214044E-01
 -1.68392235E-17 -2.13009325E-01 -1.97932932E-01 -3.19164245E-17 -4.03729783E-01
 -2.83756151E-01 -2.68488449E-17 -3.39626963E-01  1.85867463E-01  1.78714329E-01
  3.24231539E-01  1.07157270E-17  1.35549586E-01  1.99250046E-17  2.27564647E-01
  1.61561823E-01  4.22112934E-01  1.79664265E-17  2.27267985E-01  3.56760694E-17
 -1.16255721E-01 -2.28290990E-17 -3.95102840E-01 -1.05687349E-01 -1.73222527E-17
 -2.19119448E-01 -2.22424839E-01 -3.58106990E-17 -2.15243019E-01 -1.59843294E-17
  4.93530903E-01  6.90176984E-01  4.50774437E-01  0.00000000E+00  0.00000000E+00
  0.00000000E+00 -5.84934322E-16 -1.08234592E-32 -9.74890536E-17  1.00000000E+00
  2.25571101E-03  1.84177921E-01  4.78073173E-02  3.39911608E-01 -3.46989454E-02
  7.59846804E-18 -2.68765604E-02 -2.38771688E-01  5.17597872E-18 -1.84943998E-01
 -3.82097501E-01 -1.39229323E-17 -2.95959039E-01  5.61344328E-02  7.14424410E-02
  4.32046920E-02 -1.15806127E-17  4.33603951E-02 -8.96992786E-18  2.97784827E-01
  2.42228673E-01  2.10957130E-01 -5.07418237E-18  2.91180102E-01 -3.93027993E-18
 -1.37978620E-01 -1.56029697E-18 -9.06135362E-02 -1.91194698E-01  1.88701345E-17
 -1.40247580E-01 -1.34126586E-01  1.39782210E-17 -1.48092566E-01  1.64052247E-17
  4.93530903E-01  6.90176984E-01  4.50774437E-01  0.00000000E+00  0.00000000E+00
  0.00000000E+00 -1.94978107E-16 -3.24703776E-32 -9.74890536E-17  3.33333333E-01
  1.00000000E+00  4.51536594E-02  2.93770200E-01  1.76151031E-01  3.76550165E-01
 -1.78870719E-01 -1.09526726E-17 -1.55527631E-02 -4.08235321E-01 -2.49972040E-17
 -6.57864357E-02 -4.15921110E-01 -2.54678228E-17 -2.02317985E-01  2.75193411E-01
  1.16746461E-01  8.96346824E-02  1.68044913E-17  2.27195424E-02  1.39117075E-18
  4.76608991E-01  1.29230183E-01  1.81289688E-01  3.68421361E-17  1.10671587E-01
  6.77668021E-18 -4.16145603E-01 -1.57908393E-17 -2.91398973E-02 -1.92215367E-01
 -3.34389271E-17 -4.40417180E-02 -1.51578121E-01 -9.28148304E-18 -1.55017553E-02
 -3.02687777E-18  4.93530903E-01  6.90176984E-01  4.50774437E-01  0.00000000E+00
  0.00000000E+00  0.00000000E+00 -1.94978107E-16 -1.08234592E-32 -2.92467161E-16
  3.33333333E-01  3.33333333E-01  1.00000000E+00  7.58338636E-18  1.93734345E-17
  2.26882637E-17  6.47686774E-18 -1.70657980E-17  1.37517339E-01 -1.97407802E-17
 -1.28130387E-17  2.79987603E-01 -2.32038786E-17  2.22529565E-18  1.33990377E-01
 -4.63131188E-18  2.37162472E-17  1.41990750E-18  2.98050115E-17 -1.40825699E-01
  1.98448908E-17 -1.64415299E-01  3.51895208E-18 -1.95216568E-17  2.23946617E-17
 -1.55099753E-01  1.20662817E-17 -3.07756368E-01 -1.43664404E-17  2.00080466E-01
 -3.22933816E-17  6.52438711E-18  2.02920889E-01 -2.39381600E-17 -2.85827553E-17
  3.13854759E-01  8.45139414E-18  2.20256014E-01  0.00000000E+00  9.04838667E-48
  4.95628469E-48  0.00000000E+00  0.00000000E+00  0.00000000E+00 -1.87467812E-32
 -3.37711988E-16 -1.33559569E-63  0.00000000E+00  0.00000000E+00  0.00000000E+00
  1.00000000E+00  9.59267517E-02  2.45066063E-01  2.86997304E-01  8.19297414E-02
 -2.15875400E-01 -1.97407802E-17 -1.12195497E-01 -1.62079726E-01 -2.32038786E-17
 -1.35320191E-02  2.81490845E-02 -4.63131188E-18  7.54061667E-02  3.00000877E-01
  2.07811686E-01  1.87170833E-01  1.98448908E-17  1.10204094E-01  1.01714176E-17
  4.45133119E-02  1.08425429E-01 -7.20830864E-02  1.20662817E-17 -2.46619952E-03
 -3.86854449E-19 -1.81729625E-01 -2.36030812E-17  1.25822085E-02 -1.71798896E-01
 -2.39381600E-17 -9.98870943E-02 -1.07230486E-01 -1.09807083E-17 -7.34092965E-02
 -8.57104634E-18  8.86781830E-32  0.00000000E+00  0.00000000E+00  0.00000000E+00
  0.00000000E+00  0.00000000E+00 -1.68855994E-16 -1.33559569E-63 -3.37711988E-16
  0.00000000E+00  0.00000000E+00  0.00000000E+00  0.00000000E+00  1.00000000E+00
  5.87381947E-18  1.50059685E-17  1.75735165E-17  5.01674978E-18 -1.97407802E-17
  1.06516006E-01 -6.86999280E-18 -2.32038786E-17  2.16868369E-01 -8.28597192E-19
 -4.63131188E-18  1.03784147E-01  4.61729603E-18  2.99947420E-17  1.09980949E-18
  1.14609081E-17 -1.64415299E-01  1.01714176E-17 -5.59077607E-02  2.44855731E-17
 -1.51207762E-17 -4.41381605E-18 -3.07756368E-01 -3.86854449E-19  3.85161308E-03
 -3.80881302E-17  1.54975163E-01  7.70438065E-19  8.45139414E-18  3.28177818E-01
 -1.27707173E-17 -1.09807083E-17  7.20980897E-02  2.15937379E-18  9.41149182E-02
  0.00000000E+00  0.00000000E+00  0.00000000E+00  0.00000000E+00  0.00000000E+00
  0.00000000E+00 -1.33559569E-63 -1.68855994E-16 -1.87467812E-32  0.00000000E+00
  0.00000000E+00  0.00000000E+00  0.00000000E+00  0.00000000E+00  1.00000000E+00
  1.24160538E-02  2.22093222E-01  8.62073827E-02  3.15736906E-01  8.09424117E-02
  4.95629327E-18 -6.26950931E-02  3.15223085E-01  1.93018471E-17 -2.44160512E-01
  3.57103660E-01  2.18662927E-17 -2.76599705E-01  1.28816089E-01  4.81798589E-02
  9.65575391E-02  8.55207894E-18 -1.08180319E-01 -6.62413404E-18  3.82434137E-01
  8.68661801E-02  2.64192080E-01  3.13472057E-17 -3.96529396E-01 -2.42804228E-17
  2.54971119E-01  8.54554633E-18 -1.61729473E-01  1.04021407E-01  2.21716143E-17
 -2.80461899E-01  2.58849540E-01  1.58499630E-17 -8.05712564E-02 -2.11999066E-17
  6.40588779E-03  8.51822189E-02  1.71812896E-01  1.43380358E-02  8.77951480E-19
  2.57672283E-23  1.82398788E-01  1.11687046E-17  1.75987327E-17  5.67024155E-02
  5.08312171E-03  5.08312171E-03  5.47461449E-18  6.45981440E-18  3.95549551E-34
  1.00000000E+00  6.57729950E-02  4.48046015E-01  2.52156666E-01  6.25509263E-01
  9.92113891E-02  6.07494551E-18 -7.68455886E-02  3.24817870E-01  1.98893582E-17
 -2.51592288E-01  5.06439834E-01  3.10104961E-17 -3.92270157E-01  2.46790385E-01
  2.11899637E-01  2.32832330E-01  3.70042641E-18 -4.68088883E-02 -2.86621776E-18
  5.01608103E-01  3.46477774E-01  4.39548165E-01  1.64527386E-17 -2.08120448E-01
 -1.27437020E-17  2.49591650E-01  1.41168424E-17 -1.87423034E-01  1.71838493E-01
  1.31298614E-17 -1.66087404E-01  1.97389400E-01  1.20866148E-17 -1.33099942E-01
 -3.49856853E-18  8.51822189E-02  2.63385709E-01  4.16171912E-01  1.01027495E-01
  6.18614994E-18  2.08452787E-17  3.79385029E-01  2.32306331E-17  3.22460420E-17
  2.02660252E-01  8.97784625E-02  8.97784625E-02  1.19719631E-17  0.00000000E+00
  0.00000000E+00  7.06285045E-01  1.00000000E+00  5.76385636E-02  4.22666548E-01
  2.25135196E-01  6.94642587E-01  3.01794355E-02  1.84795745E-18 -2.33759098E-02
  1.22100278E-01  7.47648575E-18 -9.45745024E-02  3.09813666E-01  1.89706157E-17
 -2.39970569E-01  2.08960082E-01  2.05291170E-01  2.07492333E-01  3.89115775E-19
 -4.92215622E-03 -3.01395143E-19  4.50247344E-01  4.25659268E-01  4.40410876E-01
  2.60775042E-18 -3.29869817E-02 -2.01987008E-18  8.65605838E-02  5.25091995E-18
 -6.67968056E-02  6.39172805E-02  4.02423766E-18 -5.09049688E-02  6.49992945E-02
  3.98005890E-18 -4.95080362E-02 -1.48155210E-19  1.71812896E-01  4.16171912E-01
  6.56684433E-01  7.53644304E-02  4.61474042E-18  4.29791076E-17  2.81596694E-01
  1.72428245E-17  0.00000000E+00  2.40619559E-01  2.09421634E-01  2.09421634E-01
  3.30877465E-18  0.00000000E+00  0.00000000E+00  3.73527845E-01  7.88878095E-01
  1.00000000E+00 -2.54635008E-02 -2.30909546E-01 -1.44775846E-01 -1.48981481E-01
 -1.19791979E-01 -1.01227371E-17  1.28048505E-01 -1.73185316E-01 -2.18568904E-17
  2.76480769E-01  4.91257375E-02 -9.55861821E-18  1.20912631E-01 -1.61697928E-01
 -8.23928507E-02 -1.90084448E-01 -1.37241685E-17  1.73605147E-01  1.47457168E-17
 -4.78308621E-02 -8.13755247E-02 -2.74247178E-01 -1.52688396E-17  1.93144608E-01
  2.64090315E-17 -1.38478341E-01 -1.36042759E-17  2.70496377E-01 -1.08538133E-01
 -1.91532167E-17  2.42280398E-01 -2.94738805E-01 -2.75355749E-17  1.28267235E-01
  2.54956046E-17 -1.43380358E-02 -1.01027495E-01 -7.53644304E-02 -3.31067879E-02
 -2.21984772E-18  0.00000000E+00 -2.02831906E-01 -1.55391761E-17  0.00000000E+00
 -1.16500664E-01 -1.01324622E-02 -1.01324622E-02 -1.27116077E-17  0.00000000E+00
  0.00000000E+00 -3.28820930E-18 -3.63892821E-16  0.00000000E+00  1.00000000E+00
 -1.55918974E-18 -1.41391318E-17 -8.86496379E-18 -9.12248470E-18 -1.01227371E-17
  4.55248640E-02  7.84070961E-18 -2.18568904E-17  1.83764792E-01  1.69295645E-17
 -9.55861821E-18  2.05229819E-01  7.40376331E-18 -1.60363764E-17  1.09012685E-18
 -1.16393155E-17  8.67722581E-02  1.47457168E-17 -6.72106833E-02 -2.46677693E-17
  1.67561599E-17 -1.67927964E-17  3.07460134E-01  2.64090315E-17 -2.38147608E-01
 -2.65712382E-17  7.65554991E-02  1.65631261E-17  9.84179242E-18  2.20225051E-01
  3.03125985E-17 -2.75355749E-17  1.54951259E-01 -7.62309991E-18 -2.18898230E-01
 -8.77951480E-19 -6.18614994E-18 -4.61474042E-18 -2.21984772E-18  3.14607661E-03
  0.00000000E+00 -1.55391761E-17  5.09420984E-02  0.00000000E+00 -8.78536072E-18
  1.03131806E-18 -6.20434370E-19  2.33611775E-02  0.00000000E+00  0.00000000E+00
  2.45610654E-32 -4.04002188E-32  0.00000000E+00  0.00000000E+00  1.00000000E+00
  1.97231157E-02  1.78854264E-01  1.12138185E-01  1.15395719E-01  1.28048505E-01
  7.84070961E-18 -5.36569221E-02  2.76480769E-01  1.69295645E-17 -3.03873091E-02
  1.20912631E-01  7.40376331E-18  1.11575226E-01  2.02853636E-01  6.38185512E-02