
Running Job 1 of 1 h2o_ccpvqz_sph.q
qchem h2o_ccpvqz_sph.q_119793.0 /scratch/jgrebol/PROVA/QCHEM/ORDER/QCHEM/qc_3643906/qchem119793/ 0
/scicomp/CentOS/7.4.1708/Skylake/software/QCHEM/6.0.1/exe/qcprog.exe_s h2o_ccpvqz_sph.q_119793.0 /scratch/jgrebol/PROVA/QCHEM/ORDER/QCHEM/qc_3643906/qchem119793/
                  Welcome to Q-Chem
     A Quantum Leap Into The Future Of Chemistry


 Q-Chem 6.0, Q-Chem, Inc., Pleasanton, CA (2022)

 License issued to: SRG Txomin Romero Asturiano, Donostia International Physics Center

 E. Epifanovsky,  A. T. B. Gilbert,  Xintian Feng,  Joonho Lee,  Yuezhi Mao,  
 N. Mardirossian,  P. Pokhilko,  A. White,  M. Wormit,  M. P. Coons,  
 A. L. Dempwolff,  Zhengting Gan,  D. Hait,  P. R. Horn,  L. D. Jacobson,  
 I. Kaliman,  J. Kussmann,  A. W. Lange,  Ka Un Lao,  D. S. Levine,  Jie Liu,  
 S. C. McKenzie,  A. F. Morrison,  K. Nanda,  F. Plasser,  D. R. Rehn,  
 M. L. Vidal,  Zhi-Qiang You,  Ying Zhu,  B. Alam,  B. Albrecht,  
 A. Aldossary,  E. Alguire,  J. H. Andersen,  V. Athavale,  D. Barton,  
 K. Begam,  A. Behn,  N. Bellonzi,  Y. A. Bernard,  E. J. Berquist,  
 H. Burton,  A. Carreras,  K. Carter-Fenk,  Romit Chakraborty,  
 Chandrima Chakravarty,  Junhan Chen,  A. D. Chien,  K. D. Closser,  
 V. Cofer-Shabica,  L. Cunha,  S. Dasgupta,  Jia Deng,  M. de Wergifosse,  
 M. Diedenhofen,  Hainam Do,  S. Ehlert,  Po-Tung Fang,  S. Fatehi,  
 Qingguo Feng,  T. Friedhoff,  B. Ganoe,  J. Gayvert,  Qinghui Ge,  
 G. Gidofalvi,  M. Goldey,  J. Gomes,  C. Gonzalez-Espinoza,  S. Gulania,  
 A. Gunina,  J. A. Gyamfi,  M. W. D. Hanson-Heine,  P. H. P. Harbach,  
 A. W. Hauser,  M. F. Herbst,  M. Hernandez Vera,  M. Hodecker,  
 Z. C. Holden,  S. Houck,  Xunkun Huang,  Kerwin Hui,  B. C. Huynh,  
 K. Ikeda,  M. Ivanov,  Hyunjun Ji,  Zuxin Jin,  Hanjie Jiang,  B. Kaduk,  
 S. Kaehler,  R. Kang,  K. Khistyaev,  Jaehoon Kim,  Yongbin Kim,  
 P. Klunzinger,  Z. Koczor-Benda,  Joong Hoon Koh,  D. Kosenkov,  
 Saikiran Kotaru,  L. Koulias,  T. Kowalczyk,  C. M. Krauter,  K. Kue,  
 A. Kunitsa,  T. Kus,  A. Landau,  K. V. Lawler,  D. Lefrancois,  S. Lehtola,  
 Rain Li,  Shaozhi Li,  Yi-Pei Li,  Jiashu Liang,  M. Liebenthal,  
 Hung-Hsuan Lin,  You-Sheng Lin,  Fenglai Liu,  Kuan-Yu Liu,  
 M. Loipersberger,  A. Luenser,  C. Malbon,  A. Manjanath,  P. Manohar,  
 E. Mansoor,  S. F. Manzer,  Shan-Ping Mao,  A. V. Marenich,  T. Markovich,  
 S. Mason,  F. Matz,  S. A. Maurer,  P. F. McLaughlin,  M. F. S. J. Menger,  
 J.-M. Mewes,  S. A. Mewes,  P. Morgante,  Mohammad Mostafanejad,  
 J. W. Mullinax,  K. J. Oosterbaan,  G. Paran,  V. Parravicini,  
 Alexander C. Paul,  Suranjan K. Paul,  F. Pavosevic,  Zheng Pei,  S. Prager,  
 E. I. Proynov,  E. Ramos,  B. Rana,  A. E. Rask,  A. Rettig,  R. M. Richard,  
 F. Rob,  E. Rossomme,  T. Scheele,  M. Scheurer,  M. Schneider,  
 P. E. Schneider,  N. Sergueev,  S. M. Sharada,  Hengyuan Shen,  
 W. Skomorowski,  D. W. Small,  C. J. Stein,  Yingli Su,  Yu-Chuan Su,  
 E. J. Sundstrom,  Zhen Tao,  J. Thirman,  Hung-Yi Tsai,  T. Tsuchimochi,  
 N. M. Tubman,  C. Utku,  S. P. Veccham,  O. Vydrov,  J. Wenzel,  
 Jonathan Wong,  J. Witte,  A. Yamada,  Chou-Hsun Yang,  Kun Yao,  
 S. Yeganeh,  S. R. Yost,  A. Zech,  F. Zeller,  Igor Ying Zhang,  
 Xing Zhang,  Yu Zhang,  D. Zuev,  A. Aspuru-Guzik,  A. T. Bell,  
 N. A. Besley,  K. B. Bravaya,  B. R. Brooks,  D. Casanova,  Jeng-Da Chai,  
 Hsing-Ta Chen,  S. Coriani,  C. J. Cramer,  A. E. DePrince, III,  
 R. A. DiStasio Jr.,  A. Dreuw,  B. D. Dunietz,  T. R. Furlani,  
 W. A. Goddard III,  S. Grimme,  S. Hammes-Schiffer,  T. Head-Gordon,  
 W. J. Hehre,  Chao-Ping Hsu,  T.-C. Jagau,  Yousung Jung,  A. Klamt,  
 Jing Kong,  D. S. Lambrecht,  Xiangyuan Li,  WanZhen Liang,  N. J. Mayhall,  
 C. W. McCurdy,  J. B. Neaton,  T. Neudecker,  C. Ochsenfeld,  
 J. A. Parkhill,  R. Peverati,  V. A. Rassolov,  Haisheng Ren,  Yihan Shao,  
 L. V. Slipchenko,  R. P. Steele,  J. E. Subotnik,  A. J. W. Thom,  
 A. Tkatchenko,  D. G. Truhlar,  T. Van Voorhis,  Fan Wang,  
 T. A. Wesolowski,  K. B. Whaley,  H. L. Woodcock III,  P. M. Zimmerman,  
 S. Faraji,  P. M. W. Gill,  M. Head-Gordon,  J. M. Herbert,  A. I. Krylov

 Contributors to earlier versions of Q-Chem not listed above: 
 R. D. Adamson,  B. Austin,  R. Baer,  J. Baker,  G. J. O. Beran,  
 K. Brandhorst,  S. T. Brown,  E. F. C. Byrd,  Arup K. Chakraborty,  
 G. K. L. Chan,  Chun-Min Chang,  Yunqing Chen,  C.-L. Cheng,  
 Siu Hung Chien,  D. M. Chipman,  D. L. Crittenden,  H. Dachsel,  
 R. J. Doerksen,  A. D. Dutoi,  R. G. Edgar,  J. Fosso-Tande,  
 L. Fusti-Molnar,  D. Ghosh,  A. Ghysels,  A. Golubeva-Zadorozhnaya,  
 J. Gonthier,  M. S. Gordon,  S. R. Gwaltney,  G. Hawkins,  J. E. Herr,  
 A. Heyden,  S. Hirata,  E. G. Hohenstein,  G. Kedziora,  F. J. Keil,  
 C. Kelley,  Jihan Kim,  R. A. King,  R. Z. Khaliullin,  P. P. Korambath,  
 W. Kurlancheek,  A. Laurent,  A. M. Lee,  M. S. Lee,  S. V. Levchenko,  
 Ching Yeh Lin,  D. Liotard,  E. Livshits,  R. C. Lochan,  I. Lotan,  
 L. A. Martinez-Martinez,  P. E. Maslen,  N. Nair,  D. P. O'Neill,  
 D. Neuhauser,  E. Neuscamman,  C. M. Oana,  R. Olivares-Amaya,  R. Olson,  
 T. M. Perrine,  B. Peters,  P. A. Pieniazek,  A. Prociuk,  Y. M. Rhee,  
 J. Ritchie,  M. A. Rohrdanz,  E. Rosta,  N. J. Russ,  H. F. Schaefer III,  
 M. W. Schmidt,  N. E. Schultz,  S. Sharma,  N. Shenvi,  C. D. Sherrill,  
 A. C. Simmonett,  A. Sodt,  T. Stein,  D. Stuck,  K. S. Thanthiriwatte,  
 V. Vanovschi,  L. Vogt,  Tao Wang,  A. Warshel,  M. A. Watson,  
 C. F. Williams,  Q. Wu,  X. Xu,  Jun Yang,  W. Zhang,  Yan Zhao

   Please cite Q-Chem as follows:
  "Software for the frontiers of quantum chemistry:
   An overview of developments in the Q-Chem 5 package"
   J. Chem. Phys. 155, 084801 (2021)
   https://doi.org/10.1063/5.0055522 (open access)

 Q-Chem 6.0.1 for Intel X86 EM64T Linux

 Parts of Q-Chem use Armadillo 9.900.5 (Nocturnal Misbehaviour).
 http://arma.sourceforge.net/

 Q-Chem begins on Tue Mar 31 15:10:51 2026  

 Host: 
0

     Scratch files written to /scratch/jgrebol/PROVA/QCHEM/ORDER/QCHEM/qc_3643906/qchem119793//
 Aug2322 |scratch|qcdevops|jenkins|workspace|build_RNUM 8725   
 Processing $rem in /scicomp/CentOS/7.4.1708/Skylake/software/QCHEM/6.0.1/config/preferences:
 Processing $rem in /dipc/jgrebol/.qchemrc:

 Checking the input file for inconsistencies... 	...done.

 Q-Chem warning in module forms1/BasisType.C, line 2853:

 You are not using the predefined 5D/6D in this basis set.


--------------------------------------------------------------
User input:
--------------------------------------------------------------
$molecule
0 1
O      0.000000    0.000000    0.117300
H      0.000000    0.757200   -0.469200
H      0.000000   -0.757200   -0.469200
$end

$rem
METHOD = HF
BASIS = cc-pVQZ
PURECART = 111
GUI = 2
PRINT_ORBITALS = TRUE
PRINT_GENERAL_BASIS = TRUE
$end
--------------------------------------------------------------
 ----------------------------------------------------------------
             Standard Nuclear Orientation (Angstroms)
    I     Atom           X                Y                Z
 ----------------------------------------------------------------
    1      O       0.0000000000     0.0000000000     0.1173000000
    2      H      -0.7572000000    -0.0000000000    -0.4692000000
    3      H       0.7572000000     0.0000000000    -0.4692000000
 ----------------------------------------------------------------
 Molecular Point Group                 C2v   NOp =  4
 Largest Abelian Subgroup              C2v   NOp =  4
 Nuclear Repulsion Energy =           9.18953376 hartrees
 There are        5 alpha and        5 beta electrons
 Requested basis set is cc-pVQZ
 Basis set in general basis input format:
-----------------------------------------------------------------------
$basis
O    0
S    8    1.000000
   6.14200000E+04    9.15600000E-05 
   9.19900000E+03    6.97330000E-04 
   2.09100000E+03    3.67901000E-03 
   5.90900000E+02    1.50670600E-02 
   1.92300000E+02    5.16674200E-02 
   6.93200000E+01    1.35843520E-01 
   2.69700000E+01    2.60704420E-01 
   1.11000000E+01    1.96456920E-01 
S    8    1.000000
   6.14200000E+04    6.10000000E-07 
   9.19900000E+03   -1.80000000E-06 
   5.90900000E+02   -1.08610000E-04 
   1.92300000E+02   -4.94110000E-04 
   6.93200000E+01   -5.43605000E-03 
   2.69700000E+01   -2.33243000E-02 
   1.11000000E+01   -1.03719380E-01 
   4.68200000E+00   -1.10942760E-01 
S    1    1.000000
   1.42800000E+00    1.00000000E+00 
S    1    1.000000
   5.54700000E-01    1.00000000E+00 
S    1    1.000000
   2.06700000E-01    1.00000000E+00 
P    3    1.000000
   6.34200000E+01    6.04400000E-03 
   1.46600000E+01    4.17990000E-02 
   4.45900000E+00    1.61143000E-01 
P    1    1.000000
   1.53100000E+00    1.00000000E+00 
P    1    1.000000
   5.30200000E-01    1.00000000E+00 
P    1    1.000000
   1.75000000E-01    1.00000000E+00 
D    1    1.000000
   3.77500000E+00    1.00000000E+00 
D    1    1.000000
   1.30000000E+00    1.00000000E+00 
D    1    1.000000
   4.44000000E-01    1.00000000E+00 
F    1    1.000000
   2.66600000E+00    1.00000000E+00 
F    1    1.000000
   8.59000000E-01    1.00000000E+00 
G    1    1.000000
   1.84600000E+00    1.00000000E+00 
****
H    0
S    3    1.000000
   8.26400000E+01    2.00600000E-03 
   1.24100000E+01    1.53430000E-02 
   2.82400000E+00    7.55790000E-02 
S    1    1.000000
   7.97700000E-01    1.00000000E+00 
S    1    1.000000
   2.58100000E-01    1.00000000E+00 
S    1    1.000000
   8.98900000E-02    1.00000000E+00 
P    1    1.000000
   2.29200000E+00    1.00000000E+00 
P    1    1.000000
   8.38000000E-01    1.00000000E+00 
P    1    1.000000
   2.92000000E-01    1.00000000E+00 
D    1    1.000000
   2.06200000E+00    1.00000000E+00 
D    1    1.000000
   6.62000000E-01    1.00000000E+00 
F    1    1.000000
   1.39700000E+00    1.00000000E+00 
****
H    0
S    3    1.000000
   8.26400000E+01    2.00600000E-03 
   1.24100000E+01    1.53430000E-02 
   2.82400000E+00    7.55790000E-02 
S    1    1.000000
   7.97700000E-01    1.00000000E+00 
S    1    1.000000
   2.58100000E-01    1.00000000E+00 
S    1    1.000000
   8.98900000E-02    1.00000000E+00 
P    1    1.000000
   2.29200000E+00    1.00000000E+00 
P    1    1.000000
   8.38000000E-01    1.00000000E+00 
P    1    1.000000
   2.92000000E-01    1.00000000E+00 
D    1    1.000000
   2.06200000E+00    1.00000000E+00 
D    1    1.000000
   6.62000000E-01    1.00000000E+00 
F    1    1.000000
   1.39700000E+00    1.00000000E+00 
****
$end
-----------------------------------------------------------------------
 There are 35 shells and 115 basis functions

 Total QAlloc Memory Limit   2048 MB
 Mega-Array Size       188 MB
 MEM_STATIC part       192 MB


                       Distance Matrix (Angstroms)
             O (  1)   H (  2)
   H (  2)  0.957776
   H (  3)  0.957776  1.514400
 
 A cutoff of  1.0D-09 yielded    630 shell pairs
 There are      6890 function pairs (     10290 Cartesian)
 Smallest overlap matrix eigenvalue = 4.21E-04

 Scale SEOQF with 1.000000e+00/1.000000e+00/1.000000e+00

 Standard Electronic Orientation quadrupole field applied
 Nucleus-field energy     =    -0.0000000002 hartrees
 Guess from superposition of atomic densities
 Warning:  Energy on first SCF cycle will be non-variational
 SAD guess density has 10.000000 electrons

 -----------------------------------------------------------------------
  General SCF calculation program by
  Eric Jon Sundstrom, Paul Horn, Yuezhi Mao, Dmitri Zuev, Alec White,
  David Stuck, Shaama M.S., Shane Yost, Joonho Lee, David Small,
  Daniel Levine, Susi Lehtola, Hugh Burton, Evgeny Epifanovsky,
  Bang C. Huynh
 -----------------------------------------------------------------------
 Hartree-Fock
 A restricted SCF calculation will be
 performed using DIIS
 SCF converges when DIIS error is below 1.0e-05
 ---------------------------------------
  Cycle       Energy         DIIS error
 ---------------------------------------
    1     -75.9317064359      3.01e-02  
    2     -76.0307238776      5.14e-03  
    3     -76.0554463362      3.04e-03  
    4     -76.0646288001      2.88e-04  
    5     -76.0647744151      7.70e-05  
    6     -76.0647906472      1.59e-05  
    7     -76.0647916505      2.96e-06  Convergence criterion met
 ---------------------------------------
 SCF time:   CPU 3.86s  wall 3.00s 
 SCF   energy in the final basis set =      -76.0647916505
 Total energy in the final basis set =      -76.0647916505
 
 --------------------------------------------------------------
             Orbital Energies (a.u.) and Symmetries
 --------------------------------------------------------------
 
 Alpha MOs, Restricted
 -- Occupied --                  
-20.560  -1.349  -0.714  -0.582  -0.508
  1 A1    2 A1    1 B1    3 A1    1 B2                                         
 -- Virtual --                   
  0.117   0.171   0.449   0.462   0.502   0.584   0.605   0.615
  4 A1    2 B1    3 B1    5 A1    6 A1    2 B2    7 A1    4 B1                 
  0.656   0.718   0.852   0.920   1.112   1.157   1.346   1.417
  1 A2    3 B2    8 A1    5 B1    9 A1    6 B1    7 B1   10 A1                 
  1.480   1.485   1.579   1.687   1.911   2.068   2.195   2.292
  4 B2    2 A2   11 A1   12 A1    8 B1    5 B2   13 A1    3 A2                 
  2.362   2.424   2.488   2.521   2.583   2.586   2.654   2.670
  9 B1    6 B2   14 A1   10 B1    7 B2    4 A2   11 B1   15 A1                 
  2.841   2.861   3.038   3.128   3.294   3.346   3.458   3.628
  5 A2   16 A1    8 B2   12 B1   13 B1   17 A1   18 A1   14 B1                 
  3.826   4.001   4.126   4.187   4.214   4.436   4.495   4.704
 19 A1    9 B2    6 A2   10 B2   20 A1   15 B1   21 A1   22 A1                 
  4.751   4.799   4.927   5.361   5.401   5.975   6.105   6.249
 11 B2   16 B1    7 A2   17 B1   23 A1   12 B2   24 A1    8 A2                 
  6.316   6.730   6.790   7.074   7.274   7.315   7.368   7.437
 18 B1    9 A2   25 A1   19 B1   20 B1   13 B2   14 B2   10 A2                 
  7.536   7.554   7.569   8.000   8.079   8.099   8.143   8.151
 21 B1   26 A1   27 A1   15 B2   22 B1   16 B2   28 A1   11 A2                 
  8.275   8.320   8.357   8.429   8.617   8.842   8.908   8.962
 23 B1   12 A2   29 A1   30 A1   24 B1   17 B2   31 A1   13 A2                 
  9.234   9.390   9.413   9.925  10.018  10.288  10.442  10.658
 25 B1   32 A1   26 B1   33 A1   27 B1   18 B2   34 A1   19 B2                 
 10.755  10.816  11.291  11.406  11.603  11.643  11.702  11.846
 14 A2   35 A1   28 B1   15 A2   36 A1   20 B2   29 B1   21 B2                 
 12.191  12.337  12.422  12.431  12.460  13.624  13.813  14.283
 37 A1   22 B2   38 A1   16 A2   30 B1   39 A1   31 B1   23 B2                 
 14.644  14.675  14.870  16.452  16.839  44.376
 17 A2   40 A1   32 B1   41 A1   33 B1   42 A1                                 
 
 Beta MOs, Restricted
 -- Occupied --                  
-20.560  -1.349  -0.714  -0.582  -0.508
  1 A1    2 A1    1 B1    3 A1    1 B2                                         
 -- Virtual --                   
  0.117   0.171   0.449   0.462   0.502   0.584   0.605   0.615
  4 A1    2 B1    3 B1    5 A1    6 A1    2 B2    7 A1    4 B1                 
  0.656   0.718   0.852   0.920   1.112   1.157   1.346   1.417
  1 A2    3 B2    8 A1    5 B1    9 A1    6 B1    7 B1   10 A1                 
  1.480   1.485   1.579   1.687   1.911   2.068   2.195   2.292
  4 B2    2 A2   11 A1   12 A1    8 B1    5 B2   13 A1    3 A2                 
  2.362   2.424   2.488   2.521   2.583   2.586   2.654   2.670
  9 B1    6 B2   14 A1   10 B1    7 B2    4 A2   11 B1   15 A1                 
  2.841   2.861   3.038   3.128   3.294   3.346   3.458   3.628
  5 A2   16 A1    8 B2   12 B1   13 B1   17 A1   18 A1   14 B1                 
  3.826   4.001   4.126   4.187   4.214   4.436   4.495   4.704
 19 A1    9 B2    6 A2   10 B2   20 A1   15 B1   21 A1   22 A1                 
  4.751   4.799   4.927   5.361   5.401   5.975   6.105   6.249
 11 B2   16 B1    7 A2   17 B1   23 A1   12 B2   24 A1    8 A2                 
  6.316   6.730   6.790   7.074   7.274   7.315   7.368   7.437
 18 B1    9 A2   25 A1   19 B1   20 B1   13 B2   14 B2   10 A2                 
  7.536   7.554   7.569   8.000   8.079   8.099   8.143   8.151
 21 B1   26 A1   27 A1   15 B2   22 B1   16 B2   28 A1   11 A2                 
  8.275   8.320   8.357   8.429   8.617   8.842   8.908   8.962
 23 B1   12 A2   29 A1   30 A1   24 B1   17 B2   31 A1   13 A2                 
  9.234   9.390   9.413   9.925  10.018  10.288  10.442  10.658
 25 B1   32 A1   26 B1   33 A1   27 B1   18 B2   34 A1   19 B2                 
 10.755  10.816  11.291  11.406  11.603  11.643  11.702  11.846
 14 A2   35 A1   28 B1   15 A2   36 A1   20 B2   29 B1   21 B2                 
 12.191  12.337  12.422  12.431  12.460  13.624  13.813  14.283
 37 A1   22 B2   38 A1   16 A2   30 B1   39 A1   31 B1   23 B2                 
 14.644  14.675  14.870  16.452  16.839  44.376
 17 A2   40 A1   32 B1   41 A1   33 B1   42 A1                                 
 --------------------------------------------------------------
 

                        RESTRICTED (RHF) MOLECULAR ORBITAL COEFFICIENTS
                         1         2         3         4         5         6
 eigenvalues:        -20.560    -1.349    -0.714    -0.582    -0.508     0.117
   1  O     s       -0.58631  -0.11924  -0.00000   0.03905  -0.00000   0.03104
   2  O     s        0.44720   0.21155  -0.00000  -0.07165  -0.00000  -0.06164
   3  O     s       -0.01906   0.24678  -0.00000  -0.09361  -0.00000  -0.10797
   4  O     s        0.00494   0.49431   0.00000  -0.18233   0.00000   0.06254
   5  O     s       -0.00039   0.21216   0.00000  -0.19598   0.00000  -1.89699
   6  O     px      -0.00000  -0.00000   0.14093  -0.00000  -0.00000  -0.00000
   7  O     py      -0.00000   0.00000  -0.00000   0.00000  -0.17770   0.00000
   8  O     pz       0.00163  -0.02163  -0.00000  -0.15593   0.00000   0.04031
   9  O     px       0.00000   0.00000   0.26009  -0.00000   0.00000  -0.00000
  10  O     py       0.00000   0.00000  -0.00000   0.00000  -0.32638   0.00000
  11  O     pz      -0.00031  -0.04323  -0.00000  -0.28639   0.00000   0.04293
  12  O     px      -0.00000  -0.00000   0.30349  -0.00000  -0.00000  -0.00000
  13  O     py       0.00000  -0.00000  -0.00000  -0.00000  -0.40704  -0.00000
  14  O     pz      -0.00096  -0.05293  -0.00000  -0.35470  -0.00000   0.19929
  15  O     px      -0.00000  -0.00000   0.11103  -0.00000  -0.00000  -0.00000
  16  O     py       0.00000   0.00000  -0.00000  -0.00000  -0.28808  -0.00000
  17  O     pz      -0.00005  -0.00829  -0.00000  -0.21883  -0.00000   0.44946
  18  O     d 1     -0.00000   0.00000  -0.00000   0.00000  -0.00000  -0.00000
  19  O     d 2      0.00000  -0.00000  -0.00000   0.00000   0.00212   0.00000
  20  O     d 3     -0.00003   0.00031   0.00000   0.00221   0.00000  -0.00052
  21  O     d 4      0.00000  -0.00000  -0.00501   0.00000  -0.00000  -0.00000
  22  O     d 5     -0.00012   0.00091  -0.00000   0.00150  -0.00000   0.00026
  23  O     d 1      0.00000  -0.00000  -0.00000  -0.00000   0.00000   0.00000
  24  O     d 2     -0.00000   0.00000   0.00000  -0.00000   0.00761  -0.00000
  25  O     d 3      0.00008   0.00161   0.00000   0.00804  -0.00000  -0.00084
  26  O     d 4     -0.00000   0.00000  -0.01831   0.00000   0.00000   0.00000
  27  O     d 5      0.00036   0.00620   0.00000   0.00448   0.00000   0.00595
  28  O     d 1      0.00000  -0.00000   0.00000  -0.00000  -0.00000   0.00000
  29  O     d 2     -0.00000  -0.00000   0.00000   0.00000   0.01568   0.00000
  30  O     d 3     -0.00012   0.00260   0.00000   0.01606   0.00000   0.00999
  31  O     d 4      0.00000   0.00000  -0.01917   0.00000   0.00000   0.00000
  32  O     d 5      0.00050   0.00407   0.00000   0.00867   0.00000  -0.08811
  33  O     f 1      0.00000  -0.00000  -0.00000  -0.00000  -0.00116   0.00000
  34  O     f 2      0.00000   0.00000   0.00000  -0.00000   0.00000   0.00000
  35  O     f 3      0.00000  -0.00000  -0.00000   0.00000  -0.00043   0.00000
  36  O     f 4     -0.00005   0.00051   0.00000   0.00019   0.00000   0.00237
  37  O     f 5      0.00000   0.00000   0.00066  -0.00000  -0.00000  -0.00000
  38  O     f 6      0.00008  -0.00120  -0.00000  -0.00154  -0.00000  -0.00350
  39  O     f 7      0.00000   0.00000   0.00153  -0.00000   0.00000  -0.00000
  40  O     f 1      0.00000  -0.00000  -0.00000  -0.00000  -0.00378   0.00000
  41  O     f 2     -0.00000   0.00000  -0.00000   0.00000   0.00000  -0.00000
  42  O     f 3     -0.00000   0.00000  -0.00000  -0.00000  -0.00153  -0.00000
  43  O     f 4      0.00016   0.00052   0.00000  -0.00046   0.00000  -0.01579
  44  O     f 5      0.00000  -0.00000   0.00046  -0.00000  -0.00000  -0.00000
  45  O     f 6     -0.00028  -0.00232  -0.00000  -0.00343  -0.00000   0.02415
  46  O     f 7      0.00000  -0.00000   0.00323   0.00000  -0.00000  -0.00000
  47  O     g 1      0.00000  -0.00000   0.00000  -0.00000   0.00000   0.00000
  48  O     g 2      0.00000   0.00000   0.00000   0.00000   0.00038  -0.00000
  49  O     g 3      0.00000  -0.00000   0.00000  -0.00000  -0.00000   0.00000
  50  O     g 4     -0.00000  -0.00000  -0.00000  -0.00000   0.00004   0.00000
  51  O     g 5     -0.00002  -0.00015  -0.00000  -0.00019  -0.00000   0.00180
  52  O     g 6     -0.00000  -0.00000   0.00028   0.00000  -0.00000   0.00000
  53  O     g 7      0.00002   0.00030   0.00000   0.00050   0.00000  -0.00199
  54  O     g 8     -0.00000   0.00000  -0.00057  -0.00000   0.00000   0.00000
  55  O     g 9      0.00001   0.00011   0.00000   0.00011   0.00000  -0.00153
  56  H 1   s        0.00002   0.03421  -0.05369   0.03239   0.00000   0.00013
  57  H 1   s       -0.00104   0.08267  -0.14139   0.08572  -0.00000   0.09379
  58  H 1   s       -0.00073   0.04837  -0.18311   0.09656  -0.00000   0.31105
  59  H 1   s        0.00014   0.00245  -0.03773   0.01313  -0.00000   0.98132
  60  H 1   px       0.00000   0.00553  -0.00434   0.00469   0.00000   0.00338
  61  H 1   py      -0.00000   0.00000  -0.00000  -0.00000  -0.00450  -0.00000
  62  H 1   pz       0.00001   0.00374  -0.00543  -0.00037   0.00000   0.00188
  63  H 1   px      -0.00053   0.00977  -0.00939   0.00897  -0.00000  -0.01710
  64  H 1   py       0.00000  -0.00000   0.00000  -0.00000  -0.01199   0.00000
  65  H 1   pz      -0.00049   0.00696  -0.01344  -0.00337  -0.00000   0.00189
  66  H 1   px      -0.00017   0.00553  -0.01361   0.00783  -0.00000   0.15481
  67  H 1   py       0.00000  -0.00000   0.00000   0.00000  -0.02840   0.00000
  68  H 1   pz      -0.00024   0.00276  -0.01668  -0.01823  -0.00000   0.13330
  69  H 1   d 1     -0.00000  -0.00000  -0.00000  -0.00000  -0.00164  -0.00000
  70  H 1   d 2     -0.00000  -0.00000  -0.00000   0.00000  -0.00131   0.00000
  71  H 1   d 3      0.00001  -0.00000  -0.00091  -0.00121  -0.00000  -0.00006
  72  H 1   d 4     -0.00004   0.00195  -0.00239   0.00075  -0.00000  -0.00100
  73  H 1   d 5     -0.00003   0.00146  -0.00076   0.00142  -0.00000  -0.00098
  74  H 1   d 1      0.00000  -0.00000   0.00000   0.00000  -0.00440   0.00000
  75  H 1   d 2      0.00000  -0.00000   0.00000  -0.00000  -0.00294   0.00000
  76  H 1   d 3     -0.00005   0.00004  -0.00159  -0.00265  -0.00000   0.00921
  77  H 1   d 4     -0.00015   0.00116  -0.00406  -0.00212  -0.00000   0.00412
  78  H 1   d 5     -0.00007   0.00084  -0.00228   0.00205  -0.00000  -0.00391
  79  H 1   f 1      0.00000  -0.00000   0.00000  -0.00000  -0.00091   0.00000
  80  H 1   f 2     -0.00000  -0.00000   0.00000  -0.00000  -0.00108   0.00000
  81  H 1   f 3     -0.00000  -0.00000   0.00000   0.00000  -0.00035   0.00000
  82  H 1   f 4      0.00002  -0.00024   0.00012  -0.00045   0.00000   0.00156
  83  H 1   f 5      0.00001   0.00020  -0.00079  -0.00082  -0.00000  -0.00177
  84  H 1   f 6      0.00000   0.00046  -0.00064   0.00005  -0.00000  -0.00439
  85  H 1   f 7     -0.00001   0.00036  -0.00012   0.00048  -0.00000  -0.00239
  86  H 2   s        0.00002   0.03421   0.05369   0.03239  -0.00000   0.00013
  87  H 2   s       -0.00104   0.08267   0.14139   0.08572   0.00000   0.09379
  88  H 2   s       -0.00073   0.04837   0.18311   0.09656  -0.00000   0.31105
  89  H 2   s        0.00014   0.00245   0.03773   0.01313   0.00000   0.98132
  90  H 2   px      -0.00000  -0.00553  -0.00434  -0.00469   0.00000  -0.00338
  91  H 2   py       0.00000  -0.00000  -0.00000  -0.00000  -0.00450  -0.00000
  92  H 2   pz       0.00001   0.00374   0.00543  -0.00037   0.00000   0.00188
  93  H 2   px       0.00053  -0.00977  -0.00939  -0.00897  -0.00000   0.01710
  94  H 2   py      -0.00000   0.00000   0.00000   0.00000  -0.01199  -0.00000
  95  H 2   pz      -0.00049   0.00696   0.01344  -0.00337  -0.00000   0.00189
  96  H 2   px       0.00017  -0.00553  -0.01361  -0.00783   0.00000  -0.15481
  97  H 2   py      -0.00000   0.00000   0.00000   0.00000  -0.02840   0.00000
  98  H 2   pz      -0.00024   0.00276   0.01668  -0.01823   0.00000   0.13330
  99  H 2   d 1     -0.00000  -0.00000  -0.00000  -0.00000   0.00164   0.00000
 100  H 2   d 2     -0.00000   0.00000  -0.00000  -0.00000  -0.00131   0.00000
 101  H 2   d 3      0.00001  -0.00000   0.00091  -0.00121  -0.00000  -0.00006
 102  H 2   d 4      0.00004  -0.00195  -0.00239  -0.00075  -0.00000   0.00100
 103  H 2   d 5     -0.00003   0.00146   0.00076   0.00142   0.00000  -0.00098
 104  H 2   d 1      0.00000  -0.00000  -0.00000  -0.00000   0.00440  -0.00000
 105  H 2   d 2     -0.00000   0.00000   0.00000   0.00000  -0.00294  -0.00000
 106  H 2   d 3     -0.00005   0.00004   0.00159  -0.00265  -0.00000   0.00921
 107  H 2   d 4      0.00015  -0.00116  -0.00406   0.00212   0.00000  -0.00412
 108  H 2   d 5     -0.00007   0.00084   0.00228   0.00205  -0.00000  -0.00391
 109  H 2   f 1     -0.00000  -0.00000   0.00000   0.00000  -0.00091   0.00000
 110  H 2   f 2      0.00000  -0.00000  -0.00000  -0.00000   0.00108   0.00000
 111  H 2   f 3     -0.00000   0.00000   0.00000  -0.00000  -0.00035  -0.00000
 112  H 2   f 4      0.00002  -0.00024  -0.00012  -0.00045   0.00000   0.00156
 113  H 2   f 5     -0.00001  -0.00020  -0.00079   0.00082  -0.00000   0.00177
 114  H 2   f 6      0.00000   0.00046   0.00064   0.00005  -0.00000  -0.00439
 115  H 2   f 7      0.00001  -0.00036  -0.00012  -0.00048   0.00000   0.00239
                         7         8         9        10
 eigenvalues:          0.171     0.449     0.462     0.502
   1  O     s       -0.00000  -0.00000  -0.02333  -0.02682
   2  O     s        0.00000   0.00000   0.02290   0.04876
   3  O     s        0.00000  -0.00000  -0.24910   0.02262
   4  O     s       -0.00000   0.00000   1.44621   0.26667
   5  O     s       -0.00000   0.00000   8.18404  -2.31776
   6  O     px      -0.05774   0.04352  -0.00000  -0.00000
   7  O     py       0.00000   0.00000   0.00000   0.00000
   8  O     pz      -0.00000   0.00000   0.06310  -0.08129
   9  O     px      -0.09421   0.03888  -0.00000  -0.00000
  10  O     py       0.00000   0.00000   0.00000   0.00000
  11  O     pz      -0.00000   0.00000   0.12481  -0.17556
  12  O     px      -0.20017   1.04374  -0.00000   0.00000
  13  O     py      -0.00000   0.00000   0.00000   0.00000
  14  O     pz       0.00000  -0.00000  -0.92728  -0.11490
  15  O     px      -1.05580   2.32200  -0.00000  -0.00000
  16  O     py       0.00000  -0.00000  -0.00000  -0.00000
  17  O     pz       0.00000  -0.00000  -3.54087   0.91469
  18  O     d 1     -0.00000  -0.00000  -0.00000   0.00000
  19  O     d 2     -0.00000  -0.00000   0.00000   0.00000
  20  O     d 3     -0.00000   0.00000   0.00264  -0.00065
  21  O     d 4      0.00237   0.01498  -0.00000   0.00000
  22  O     d 5      0.00000  -0.00000  -0.00657  -0.00848
  23  O     d 1      0.00000   0.00000   0.00000  -0.00000
  24  O     d 2      0.00000  -0.00000  -0.00000  -0.00000
  25  O     d 3      0.00000  -0.00000  -0.01458   0.02050
  26  O     d 4     -0.01435  -0.05393   0.00000  -0.00000
  27  O     d 5     -0.00000   0.00000   0.03651   0.01913
  28  O     d 1      0.00000   0.00000   0.00000   0.00000
  29  O     d 2     -0.00000  -0.00000   0.00000   0.00000
  30  O     d 3     -0.00000   0.00000   0.11121  -0.12897
  31  O     d 4      0.11902  -0.63249   0.00000  -0.00000
  32  O     d 5     -0.00000   0.00000   0.61865  -0.04929
  33  O     f 1     -0.00000   0.00000   0.00000   0.00000
  34  O     f 2      0.00000   0.00000   0.00000   0.00000
  35  O     f 3      0.00000  -0.00000   0.00000   0.00000
  36  O     f 4     -0.00000   0.00000   0.00133  -0.00040
  37  O     f 5      0.00170  -0.00378   0.00000   0.00000
  38  O     f 6      0.00000  -0.00000  -0.00113  -0.00190
  39  O     f 7      0.00065  -0.00101   0.00000   0.00000
  40  O     f 1      0.00000   0.00000  -0.00000  -0.00000
  41  O     f 2     -0.00000  -0.00000  -0.00000  -0.00000
  42  O     f 3     -0.00000   0.00000  -0.00000  -0.00000
  43  O     f 4     -0.00000   0.00000   0.05418   0.01562
  44  O     f 5     -0.01553   0.08726  -0.00000   0.00000
  45  O     f 6      0.00000  -0.00000  -0.11905  -0.01207
  46  O     f 7     -0.00191   0.05372  -0.00000   0.00000
  47  O     g 1      0.00000  -0.00000   0.00000   0.00000
  48  O     g 2      0.00000  -0.00000   0.00000   0.00000
  49  O     g 3     -0.00000   0.00000   0.00000   0.00000
  50  O     g 4     -0.00000   0.00000   0.00000   0.00000
  51  O     g 5      0.00000  -0.00000  -0.00770   0.00107
  52  O     g 6      0.00180  -0.00060   0.00000   0.00000
  53  O     g 7     -0.00000   0.00000   0.01082  -0.00186
  54  O     g 8      0.00097  -0.00978   0.00000  -0.00000
  55  O     g 9     -0.00000   0.00000   0.00656   0.00071
  56  H 1   s        0.00431   0.02556  -0.00088  -0.04089
  57  H 1   s       -0.05951   0.31139  -0.21767  -0.03853
  58  H 1   s       -0.31008   3.02296  -5.07186   0.03919
  59  H 1   s       -2.08530  -0.33120  -0.10894   0.84312
  60  H 1   px      -0.00352  -0.02357   0.02203   0.03059
  61  H 1   py       0.00000  -0.00000  -0.00000  -0.00000
  62  H 1   pz      -0.00344  -0.02315   0.00896   0.01049
  63  H 1   px       0.02026   0.29636  -0.30501  -0.10641
  64  H 1   py      -0.00000   0.00000   0.00000   0.00000
  65  H 1   pz       0.03081   0.20376  -0.23053  -0.06311
  66  H 1   px      -0.24504   0.40895  -1.33093   0.85455
  67  H 1   py      -0.00000  -0.00000   0.00000   0.00000
  68  H 1   pz      -0.18715   0.24766  -1.03433   0.26628
  69  H 1   d 1     -0.00000   0.00000  -0.00000  -0.00000
  70  H 1   d 2      0.00000  -0.00000  -0.00000  -0.00000
  71  H 1   d 3      0.00165  -0.00028  -0.00081   0.00196
  72  H 1   d 4      0.00323   0.01164  -0.00922  -0.00956
  73  H 1   d 5      0.00237   0.01050  -0.00792  -0.00366
  74  H 1   d 1      0.00000   0.00000   0.00000   0.00000
  75  H 1   d 2     -0.00000   0.00000   0.00000   0.00000
  76  H 1   d 3      0.00940  -0.01954  -0.02791  -0.04010
  77  H 1   d 4     -0.00883   0.11077  -0.22391   0.01728
  78  H 1   d 5     -0.01768   0.07182  -0.13885   0.02071
  79  H 1   f 1     -0.00000  -0.00000   0.00000   0.00000
  80  H 1   f 2     -0.00000  -0.00000   0.00000   0.00000
  81  H 1   f 3      0.00000   0.00000   0.00000   0.00000
  82  H 1   f 4      0.00074  -0.00732   0.00678  -0.00099
  83  H 1   f 5      0.00356   0.00088  -0.01258  -0.00806
  84  H 1   f 6      0.00178   0.00921  -0.02147  -0.00120
  85  H 1   f 7      0.00031   0.00503  -0.01154   0.00144
  86  H 2   s       -0.00431  -0.02556  -0.00088  -0.04089
  87  H 2   s        0.05951  -0.31139  -0.21767  -0.03853
  88  H 2   s        0.31008  -3.02296  -5.07186   0.03919
  89  H 2   s        2.08530   0.33120  -0.10894   0.84312
  90  H 2   px      -0.00352  -0.02357  -0.02203  -0.03059
  91  H 2   py       0.00000  -0.00000  -0.00000  -0.00000
  92  H 2   pz       0.00344   0.02315   0.00896   0.01049
  93  H 2   px       0.02026   0.29636   0.30501   0.10641
  94  H 2   py      -0.00000   0.00000   0.00000   0.00000
  95  H 2   pz      -0.03081  -0.20376  -0.23053  -0.06311
  96  H 2   px      -0.24504   0.40895   1.33093  -0.85455
  97  H 2   py       0.00000  -0.00000  -0.00000  -0.00000
  98  H 2   pz       0.18715  -0.24766  -1.03433   0.26628
  99  H 2   d 1     -0.00000  -0.00000   0.00000  -0.00000
 100  H 2   d 2     -0.00000  -0.00000  -0.00000   0.00000
 101  H 2   d 3     -0.00165   0.00028  -0.00081   0.00196
 102  H 2   d 4      0.00323   0.01164   0.00922   0.00956
 103  H 2   d 5     -0.00237  -0.01050  -0.00792  -0.00366
 104  H 2   d 1      0.00000   0.00000  -0.00000   0.00000
 105  H 2   d 2     -0.00000  -0.00000  -0.00000  -0.00000
 106  H 2   d 3     -0.00940   0.01954  -0.02791  -0.04010
 107  H 2   d 4     -0.00883   0.11077   0.22391  -0.01728
 108  H 2   d 5      0.01768  -0.07182  -0.13885   0.02071
 109  H 2   f 1     -0.00000  -0.00000  -0.00000  -0.00000
 110  H 2   f 2      0.00000   0.00000   0.00000   0.00000
 111  H 2   f 3      0.00000   0.00000  -0.00000  -0.00000
 112  H 2   f 4     -0.00074   0.00732   0.00678  -0.00099
 113  H 2   f 5      0.00356   0.00088   0.01258   0.00806
 114  H 2   f 6     -0.00178  -0.00921  -0.02147  -0.00120
 115  H 2   f 7      0.00031   0.00503   0.01154  -0.00144
 
          Ground-State Mulliken Net Atomic Charges

     Atom                 Charge (a.u.)
  ----------------------------------------
      1 O                    -0.526592
      2 H                     0.263296
      3 H                     0.263296
  ----------------------------------------
  Sum of atomic charges =     0.000000

 -----------------------------------------------------------------
                    Cartesian Multipole Moments
 -----------------------------------------------------------------
    Charge (ESU x 10^10)
                -0.0000
    Dipole Moment (Debye)
         X      -0.0000      Y       0.0000      Z      -2.0082
       Tot       2.0082
    Quadrupole Moments (Debye-Ang)
        XX      -4.1941     XY       0.0000     YY      -7.4155
        XZ      -0.0000     YZ      -0.0000     ZZ      -6.1432
    Octopole Moments (Debye-Ang^2)
       XXX      -0.0000    XXY       0.0000    XYY      -0.0000
       YYY       0.0000    XXZ      -1.4032    XYZ      -0.0000
       YYZ      -0.2782    XZZ      -0.0000    YZZ       0.0000
       ZZZ      -1.2059
    Hexadecapole Moments (Debye-Ang^3)
      XXXX      -5.7441   XXXY       0.0000   XXYY      -2.2870
      XYYY       0.0000   YYYY      -6.0118   XXXZ      -0.0000
      XXYZ      -0.0000   XYYZ       0.0000   YYYZ      -0.0000
      XXZZ      -1.7212   XYZZ      -0.0000   YYZZ      -2.1816
      XZZZ      -0.0000   YZZZ      -0.0000   ZZZZ      -6.7432
 -----------------------------------------------------------------
 Total job time:  4.22s(wall), 4.00s(cpu) 
 Tue Mar 31 15:10:56 2026

        *************************************************************
        *                                                           *
        *  Thank you very much for using Q-Chem.  Have a nice day.  *
        *                                                           *
        *************************************************************


