Jobname.Temp
SP        R                             cc-pVQZ             
Number of atoms                            I                3
Charge                                     I                0
Multiplicity                               I                1
Number of electrons                        I               10
Number of alpha electrons                  I                5
Number of beta electrons                   I                5
Atomic numbers                             I   N=           3
           8           1           1
Current cartesian coordinates              R   N=           9
  0.00000000E+00  0.00000000E+00  2.21664874E-01 -1.43090062E+00 -8.76173933E-17
 -8.86659498E-01  1.43090062E+00  8.76173933E-17 -8.86659498E-01
Nuclear charges                            R   N=           3
  8.00000000E+00  1.00000000E+00  1.00000000E+00
Number of basis functions                  I              115
Number of contracted shells                I               35
Number of primitive shells                 I               55
Highest angular momentum                   I                4
Largest degree of contraction              I                8
Shell types                                I   N=          35
           0           0           0           0           0           1
           1           1           1          -2          -2          -2
          -3          -3          -4           0           0           0
           0           1           1           1          -2          -2
          -3           0           0           0           0           1
           1           1          -2          -2          -3
Number of primitives per shell             I   N=          35
           8           8           1           1           1           3
           1           1           1           1           1           1
           1           1           1           3           1           1
           1           1           1           1           1           1
           1           3           1           1           1           1
           1           1           1           1           1
Shell to atom map                          I   N=          35
           1           1           1           1           1           1
           1           1           1           1           1           1
           1           1           1           2           2           2
           2           2           2           2           2           2
           2           3           3           3           3           3
           3           3           3           3           3
Primitive exponents                        R   N=          55
  6.14200000E+04  9.19900000E+03  2.09100000E+03  5.90900000E+02  1.92300000E+02
  6.93200000E+01  2.69700000E+01  1.11000000E+01  6.14200000E+04  9.19900000E+03
  5.90900000E+02  1.92300000E+02  6.93200000E+01  2.69700000E+01  1.11000000E+01
  4.68200000E+00  1.42800000E+00  5.54700000E-01  2.06700000E-01  6.34200000E+01
  1.46600000E+01  4.45900000E+00  1.53100000E+00  5.30200000E-01  1.75000000E-01
  3.77500000E+00  1.30000000E+00  4.44000000E-01  2.66600000E+00  8.59000000E-01
  1.84600000E+00  8.26400000E+01  1.24100000E+01  2.82400000E+00  7.97700000E-01
  2.58100000E-01  8.98900000E-02  2.29200000E+00  8.38000000E-01  2.92000000E-01
  2.06200000E+00  6.62000000E-01  1.39700000E+00  8.26400000E+01  1.24100000E+01
  2.82400000E+00  7.97700000E-01  2.58100000E-01  8.98900000E-02  2.29200000E+00
  8.38000000E-01  2.92000000E-01  2.06200000E+00  6.62000000E-01  1.39700000E+00
Contraction coefficients                   R   N=          55
  1.55513906E-04  1.18440926E-03  6.24876819E-03  2.55912773E-02  8.77566873E-02
  2.30729100E-01  4.42804310E-01  3.33680461E-01  2.66555235E-06 -7.86556431E-06
 -4.74599411E-04 -2.15914110E-03 -2.37542227E-02 -1.01921545E-01 -4.53228586E-01
 -4.84793008E-01  1.00000000E+00  1.00000000E+00  1.00000000E+00  3.13275025E-02
  2.16654248E-01  8.35242842E-01  1.00000000E+00  1.00000000E+00  1.00000000E+00
  1.00000000E+00  1.00000000E+00  1.00000000E+00  1.00000000E+00  1.00000000E+00
  1.00000000E+00  2.29507578E-02  1.75540118E-01  8.64703551E-01  1.00000000E+00
  1.00000000E+00  1.00000000E+00  1.00000000E+00  1.00000000E+00  1.00000000E+00
  1.00000000E+00  1.00000000E+00  1.00000000E+00  2.29507578E-02  1.75540118E-01
  8.64703551E-01  1.00000000E+00  1.00000000E+00  1.00000000E+00  1.00000000E+00
  1.00000000E+00  1.00000000E+00  1.00000000E+00  1.00000000E+00  1.00000000E+00
Coordinates of each shell                  R   N=         105
  0.00000000E+00  0.00000000E+00  2.21664874E-01  0.00000000E+00  0.00000000E+00
  2.21664874E-01  0.00000000E+00  0.00000000E+00  2.21664874E-01  0.00000000E+00
  0.00000000E+00  2.21664874E-01  0.00000000E+00  0.00000000E+00  2.21664874E-01
  0.00000000E+00  0.00000000E+00  2.21664874E-01  0.00000000E+00  0.00000000E+00
  2.21664874E-01  0.00000000E+00  0.00000000E+00  2.21664874E-01  0.00000000E+00
  0.00000000E+00  2.21664874E-01  0.00000000E+00  0.00000000E+00  2.21664874E-01
  0.00000000E+00  0.00000000E+00  2.21664874E-01  0.00000000E+00  0.00000000E+00
  2.21664874E-01  0.00000000E+00  0.00000000E+00  2.21664874E-01  0.00000000E+00
  0.00000000E+00  2.21664874E-01  0.00000000E+00  0.00000000E+00  2.21664874E-01
 -1.43090062E+00 -8.76173933E-17 -8.86659498E-01 -1.43090062E+00 -8.76173933E-17
 -8.86659498E-01 -1.43090062E+00 -8.76173933E-17 -8.86659498E-01 -1.43090062E+00
 -8.76173933E-17 -8.86659498E-01 -1.43090062E+00 -8.76173933E-17 -8.86659498E-01
 -1.43090062E+00 -8.76173933E-17 -8.86659498E-01 -1.43090062E+00 -8.76173933E-17
 -8.86659498E-01 -1.43090062E+00 -8.76173933E-17 -8.86659498E-01 -1.43090062E+00
 -8.76173933E-17 -8.86659498E-01 -1.43090062E+00 -8.76173933E-17 -8.86659498E-01
  1.43090062E+00  8.76173933E-17 -8.86659498E-01  1.43090062E+00  8.76173933E-17
 -8.86659498E-01  1.43090062E+00  8.76173933E-17 -8.86659498E-01  1.43090062E+00
  8.76173933E-17 -8.86659498E-01  1.43090062E+00  8.76173933E-17 -8.86659498E-01
  1.43090062E+00  8.76173933E-17 -8.86659498E-01  1.43090062E+00  8.76173933E-17
 -8.86659498E-01  1.43090062E+00  8.76173933E-17 -8.86659498E-01  1.43090062E+00
  8.76173933E-17 -8.86659498E-01  1.43090062E+00  8.76173933E-17 -8.86659498E-01
Overlap Matrix                             R   N=        6670
  1.00000000E+00 -8.37622615E-01  1.00000000E+00  3.38518906E-01 -6.40310154E-01
  1.00000000E+00  1.79447310E-01 -3.77069215E-01  8.50646782E-01  1.00000000E+00
  8.83146827E-02 -1.94909691E-01  5.41925282E-01  8.38831376E-01  1.00000000E+00
  0.00000000E+00  0.00000000E+00  0.00000000E+00  0.00000000E+00  0.00000000E+00
  1.00000000E+00  0.00000000E+00  0.00000000E+00  0.00000000E+00  0.00000000E+00
  0.00000000E+00  0.00000000E+00  1.00000000E+00  2.23572581E-18  1.27020357E-17
 -1.75518153E-17 -5.92192871E-17  2.58472874E-17  0.00000000E+00  0.00000000E+00
  1.00000000E+00  0.00000000E+00  0.00000000E+00  0.00000000E+00  0.00000000E+00
  0.00000000E+00  6.52075582E-01  0.00000000E+00  0.00000000E+00  1.00000000E+00
  0.00000000E+00  0.00000000E+00  0.00000000E+00  0.00000000E+00  0.00000000E+00
  0.00000000E+00  6.52075582E-01  0.00000000E+00  0.00000000E+00  1.00000000E+00
  2.09039256E-17 -1.85268645E-17  1.37247019E-16  0.00000000E+00  0.00000000E+00
  0.00000000E+00  0.00000000E+00  6.52075582E-01  0.00000000E+00  0.00000000E+00
  1.00000000E+00  0.00000000E+00  0.00000000E+00  0.00000000E+00  0.00000000E+00
  0.00000000E+00  2.67244679E-01  0.00000000E+00  0.00000000E+00  7.14567562E-01
  0.00000000E+00  0.00000000E+00  1.00000000E+00  0.00000000E+00  0.00000000E+00
  0.00000000E+00  0.00000000E+00  0.00000000E+00  0.00000000E+00  2.67244679E-01
  0.00000000E+00  0.00000000E+00  7.14567562E-01  0.00000000E+00  0.00000000E+00
  1.00000000E+00 -2.02841525E-18  9.73901761E-18 -3.38637827E-17  0.00000000E+00
  0.00000000E+00  0.00000000E+00  0.00000000E+00  2.67244679E-01  0.00000000E+00
  0.00000000E+00  7.14567562E-01  0.00000000E+00  0.00000000E+00  1.00000000E+00
  0.00000000E+00  0.00000000E+00  0.00000000E+00  0.00000000E+00  0.00000000E+00
  7.97679543E-02  0.00000000E+00  0.00000000E+00  2.86842812E-01  0.00000000E+00
  0.00000000E+00  6.93651684E-01  0.00000000E+00  0.00000000E+00  1.00000000E+00
  0.00000000E+00  0.00000000E+00  0.00000000E+00  0.00000000E+00  0.00000000E+00
  0.00000000E+00  7.97679543E-02  0.00000000E+00  0.00000000E+00  2.86842812E-01
  0.00000000E+00  0.00000000E+00  6.93651684E-01  0.00000000E+00  0.00000000E+00
  1.00000000E+00 -1.63774608E-18  1.44601344E-18 -1.14384890E-17 -1.83252494E-17
 -2.31017514E-17  0.00000000E+00  0.00000000E+00  7.97679543E-02  0.00000000E+00
  0.00000000E+00  2.86842812E-01  0.00000000E+00  0.00000000E+00  6.93651684E-01
  0.00000000E+00  0.00000000E+00  1.00000000E+00  0.00000000E+00  0.00000000E+00
  0.00000000E+00  0.00000000E+00  0.00000000E+00  0.00000000E+00  0.00000000E+00
  1.57890530E-17  0.00000000E+00  0.00000000E+00  0.00000000E+00  0.00000000E+00
  0.00000000E+00 -4.36109543E-17  0.00000000E+00  0.00000000E+00  0.00000000E+00
  1.00000000E+00  0.00000000E+00  0.00000000E+00  0.00000000E+00  0.00000000E+00
  0.00000000E+00  1.36737210E-17  0.00000000E+00  0.00000000E+00  0.00000000E+00
  0.00000000E+00  0.00000000E+00 -3.77681943E-17  0.00000000E+00  0.00000000E+00
  0.00000000E+00  0.00000000E+00  0.00000000E+00  0.00000000E+00  1.00000000E+00
  0.00000000E+00  0.00000000E+00  0.00000000E+00  0.00000000E+00  0.00000000E+00
  0.00000000E+00  1.36737210E-17  0.00000000E+00  0.00000000E+00  0.00000000E+00
  0.00000000E+00  0.00000000E+00 -3.77681943E-17  0.00000000E+00  0.00000000E+00
  0.00000000E+00  0.00000000E+00  0.00000000E+00  0.00000000E+00  1.00000000E+00
  1.67519533E-18  3.83116603E-18 -5.71649549E-18  1.32001895E-17 -1.55203078E-17
  0.00000000E+00  0.00000000E+00 -1.79189170E-34  0.00000000E+00  0.00000000E+00
  0.00000000E+00  0.00000000E+00  0.00000000E+00 -5.01331597E-34  0.00000000E+00
  0.00000000E+00  0.00000000E+00 -4.95805605E-18  0.00000000E+00  0.00000000E+00
  1.00000000E+00  0.00000000E+00  0.00000000E+00  0.00000000E+00  0.00000000E+00
  0.00000000E+00  0.00000000E+00  0.00000000E+00  0.00000000E+00  0.00000000E+00
  0.00000000E+00  0.00000000E+00  0.00000000E+00  0.00000000E+00  0.00000000E+00
  0.00000000E+00  0.00000000E+00  0.00000000E+00  0.00000000E+00  0.00000000E+00
  0.00000000E+00  0.00000000E+00  1.00000000E+00  0.00000000E+00  0.00000000E+00
  0.00000000E+00  0.00000000E+00  0.00000000E+00  0.00000000E+00  0.00000000E+00
  9.54855727E-20  0.00000000E+00  0.00000000E+00  0.00000000E+00  0.00000000E+00
  0.00000000E+00  0.00000000E+00  0.00000000E+00  0.00000000E+00 -2.45834578E-17
  6.21705002E-01  0.00000000E+00  0.00000000E+00  1.35768989E-17  0.00000000E+00
  1.00000000E+00  0.00000000E+00  0.00000000E+00  0.00000000E+00  0.00000000E+00
  0.00000000E+00  8.26929317E-20  0.00000000E+00  0.00000000E+00  0.00000000E+00
  0.00000000E+00  0.00000000E+00  0.00000000E+00  0.00000000E+00  0.00000000E+00
 -2.12898989E-17  0.00000000E+00  0.00000000E+00  0.00000000E+00  6.21705002E-01
  0.00000000E+00  0.00000000E+00  0.00000000E+00  0.00000000E+00  1.00000000E+00
  0.00000000E+00  0.00000000E+00  0.00000000E+00  0.00000000E+00  0.00000000E+00
  0.00000000E+00  8.26929317E-20  0.00000000E+00  0.00000000E+00  0.00000000E+00
  0.00000000E+00  0.00000000E+00  0.00000000E+00  0.00000000E+00  0.00000000E+00
 -2.12898989E-17  0.00000000E+00  0.00000000E+00  0.00000000E+00  6.21705002E-01
  0.00000000E+00  0.00000000E+00  0.00000000E+00  0.00000000E+00  1.00000000E+00
 -9.44297403E-19 -6.22781972E-18 -9.66428874E-18 -4.96176395E-17 -1.73165754E-17
  0.00000000E+00  0.00000000E+00 -1.34334442E-36  0.00000000E+00  0.00000000E+00
  0.00000000E+00  0.00000000E+00  0.00000000E+00  0.00000000E+00  0.00000000E+00
  0.00000000E+00  6.27817515E-34 -1.35768989E-17  0.00000000E+00  0.00000000E+00
  6.21705002E-01  0.00000000E+00  1.73531962E-17  0.00000000E+00  0.00000000E+00
  1.00000000E+00  0.00000000E+00  0.00000000E+00  0.00000000E+00  0.00000000E+00
  0.00000000E+00  0.00000000E+00  0.00000000E+00  0.00000000E+00  0.00000000E+00
  0.00000000E+00  0.00000000E+00  0.00000000E+00  0.00000000E+00  0.00000000E+00
  0.00000000E+00  0.00000000E+00  0.00000000E+00  0.00000000E+00  0.00000000E+00
  0.00000000E+00  0.00000000E+00  6.21705002E-01  0.00000000E+00  0.00000000E+00
  0.00000000E+00  0.00000000E+00  1.00000000E+00  0.00000000E+00  0.00000000E+00
  0.00000000E+00  0.00000000E+00  0.00000000E+00  0.00000000E+00  0.00000000E+00
 -6.13831992E-19  0.00000000E+00  0.00000000E+00  0.00000000E+00  0.00000000E+00
  0.00000000E+00  0.00000000E+00  0.00000000E+00  0.00000000E+00  0.00000000E+00
  1.81090854E-01  0.00000000E+00  0.00000000E+00  2.00673924E-18  0.00000000E+00
  6.17324292E-01  0.00000000E+00  0.00000000E+00 -1.44087908E-17  0.00000000E+00
  1.00000000E+00  0.00000000E+00  0.00000000E+00  0.00000000E+00  0.00000000E+00
  0.00000000E+00 -5.31594099E-19  0.00000000E+00  0.00000000E+00  0.00000000E+00
  0.00000000E+00  0.00000000E+00  0.00000000E+00  0.00000000E+00  0.00000000E+00
  0.00000000E+00  0.00000000E+00  0.00000000E+00  0.00000000E+00  1.81090854E-01
  0.00000000E+00  0.00000000E+00  0.00000000E+00  0.00000000E+00  6.17324292E-01
  0.00000000E+00  0.00000000E+00  0.00000000E+00  0.00000000E+00  1.00000000E+00
  0.00000000E+00  0.00000000E+00  0.00000000E+00  0.00000000E+00  0.00000000E+00
  0.00000000E+00 -5.31594099E-19  0.00000000E+00  0.00000000E+00  0.00000000E+00
  0.00000000E+00  0.00000000E+00  0.00000000E+00  0.00000000E+00  0.00000000E+00
  0.00000000E+00  0.00000000E+00  0.00000000E+00  0.00000000E+00  1.81090854E-01
  0.00000000E+00  0.00000000E+00  0.00000000E+00  0.00000000E+00  6.17324292E-01
  0.00000000E+00  0.00000000E+00  0.00000000E+00  0.00000000E+00  1.00000000E+00
 -3.08716052E-19 -1.56137094E-18  1.06573116E-17 -2.67103583E-17 -4.22823654E-17
  0.00000000E+00  0.00000000E+00 -2.28163910E-35  0.00000000E+00  0.00000000E+00
  0.00000000E+00  0.00000000E+00  0.00000000E+00  0.00000000E+00  0.00000000E+00
  0.00000000E+00  0.00000000E+00  7.15422458E-19  0.00000000E+00  0.00000000E+00
  1.81090854E-01  0.00000000E+00  1.52738331E-18  0.00000000E+00  0.00000000E+00
  6.17324292E-01  0.00000000E+00 -4.95805605E-18  0.00000000E+00  0.00000000E+00
  1.00000000E+00  0.00000000E+00  0.00000000E+00  0.00000000E+00  0.00000000E+00
  0.00000000E+00  0.00000000E+00  0.00000000E+00  0.00000000E+00  0.00000000E+00
  0.00000000E+00  0.00000000E+00  0.00000000E+00  0.00000000E+00  0.00000000E+00
  0.00000000E+00  0.00000000E+00  0.00000000E+00  0.00000000E+00  0.00000000E+00
  0.00000000E+00  0.00000000E+00  1.81090854E-01  0.00000000E+00  0.00000000E+00
  0.00000000E+00  0.00000000E+00  6.17324292E-01  0.00000000E+00  0.00000000E+00
  0.00000000E+00  0.00000000E+00  1.00000000E+00  4.81482486E-35 -3.08148791E-33
  0.00000000E+00  2.46519033E-32  1.23259516E-32  0.00000000E+00  0.00000000E+00
  5.55111512E-17  0.00000000E+00  0.00000000E+00  0.00000000E+00  0.00000000E+00
  0.00000000E+00  0.00000000E+00  0.00000000E+00  0.00000000E+00 -5.55111512E-17
  0.00000000E+00  0.00000000E+00  0.00000000E+00  0.00000000E+00  0.00000000E+00
 -1.94985886E-16  0.00000000E+00  0.00000000E+00 -1.33523800E-33  0.00000000E+00
 -3.48389963E-17  0.00000000E+00  0.00000000E+00  3.72816419E-34  0.00000000E+00
  1.00000000E+00  0.00000000E+00  0.00000000E+00  0.00000000E+00  0.00000000E+00
  0.00000000E+00 -1.05487817E-17  0.00000000E+00  0.00000000E+00  1.00459844E-16
  0.00000000E+00  0.00000000E+00  6.83838237E-18  0.00000000E+00  0.00000000E+00
  4.82957650E-17  0.00000000E+00  0.00000000E+00  0.00000000E+00  0.00000000E+00
  0.00000000E+00  0.00000000E+00  0.00000000E+00  0.00000000E+00 -1.83834456E-16
  0.00000000E+00  0.00000000E+00  0.00000000E+00  0.00000000E+00 -3.28465207E-17
  0.00000000E+00  0.00000000E+00  0.00000000E+00  0.00000000E+00  1.00000000E+00
  0.00000000E+00  0.00000000E+00  0.00000000E+00  0.00000000E+00  0.00000000E+00
  0.00000000E+00 -1.05487817E-17  0.00000000E+00  0.00000000E+00 -1.05624588E-17
  0.00000000E+00  0.00000000E+00  6.83838237E-18  0.00000000E+00  0.00000000E+00
  2.05401894E-17  0.00000000E+00  0.00000000E+00  0.00000000E+00  0.00000000E+00
  0.00000000E+00  0.00000000E+00  0.00000000E+00  0.00000000E+00 -1.83834456E-16
  0.00000000E+00  0.00000000E+00  0.00000000E+00  0.00000000E+00 -3.28465207E-17
  0.00000000E+00  0.00000000E+00  0.00000000E+00  0.00000000E+00  1.00000000E+00
  8.06590056E-37  9.38993069E-34  0.00000000E+00  1.74939778E-33 -8.37939389E-34
  0.00000000E+00  0.00000000E+00  1.67630911E-17  0.00000000E+00  0.00000000E+00
  2.05204722E-17  0.00000000E+00  0.00000000E+00  6.92908985E-18  0.00000000E+00
  0.00000000E+00 -5.30378436E-18  0.00000000E+00  0.00000000E+00  0.00000000E+00
  0.00000000E+00  0.00000000E+00  9.34818255E-34  0.00000000E+00  0.00000000E+00
 -1.45333898E-16  0.00000000E+00  5.20709508E-34  0.00000000E+00  0.00000000E+00
 -2.59674546E-17  0.00000000E+00 -1.87477717E-17  0.00000000E+00  0.00000000E+00
  1.00000000E+00  0.00000000E+00  0.00000000E+00  0.00000000E+00  0.00000000E+00
  0.00000000E+00  0.00000000E+00  0.00000000E+00  0.00000000E+00  0.00000000E+00
  0.00000000E+00  0.00000000E+00  0.00000000E+00  0.00000000E+00  0.00000000E+00
  0.00000000E+00  0.00000000E+00  0.00000000E+00  0.00000000E+00  0.00000000E+00
  0.00000000E+00  0.00000000E+00  0.00000000E+00  0.00000000E+00  0.00000000E+00
  0.00000000E+00  0.00000000E+00 -1.45333898E-16  0.00000000E+00  0.00000000E+00
  0.00000000E+00  0.00000000E+00 -2.59674546E-17  0.00000000E+00  0.00000000E+00
  0.00000000E+00  0.00000000E+00  1.00000000E+00  0.00000000E+00  0.00000000E+00
  0.00000000E+00  0.00000000E+00  0.00000000E+00  8.16901322E-17  0.00000000E+00
  0.00000000E+00  1.15775713E-16  0.00000000E+00  0.00000000E+00  7.96869311E-17
  0.00000000E+00  0.00000000E+00 -1.51342654E-17  0.00000000E+00  0.00000000E+00
  0.00000000E+00  0.00000000E+00  0.00000000E+00  0.00000000E+00  0.00000000E+00
  0.00000000E+00 -4.86469798E-32  0.00000000E+00  0.00000000E+00  0.00000000E+00
  0.00000000E+00  2.75584693E-34  0.00000000E+00  0.00000000E+00  0.00000000E+00
  0.00000000E+00 -3.60954511E-17  0.00000000E+00  0.00000000E+00  0.00000000E+00
  1.00000000E+00  0.00000000E+00  0.00000000E+00  0.00000000E+00  0.00000000E+00
  0.00000000E+00  0.00000000E+00 -5.99988909E-17  0.00000000E+00  0.00000000E+00
 -6.86727933E-17  0.00000000E+00  0.00000000E+00 -3.59056924E-17  0.00000000E+00
  0.00000000E+00  2.51221220E-17  0.00000000E+00  0.00000000E+00  0.00000000E+00
  0.00000000E+00  0.00000000E+00  0.00000000E+00  0.00000000E+00  0.00000000E+00
  4.38611344E-32  0.00000000E+00  0.00000000E+00  0.00000000E+00  0.00000000E+00
  6.81879256E-34  0.00000000E+00  0.00000000E+00  0.00000000E+00  0.00000000E+00
  4.03909093E-17  0.00000000E+00  0.00000000E+00  0.00000000E+00  1.00000000E+00
 -1.01111322E-33 -2.69630192E-33  0.00000000E+00  6.16297582E-33  0.00000000E+00
  0.00000000E+00  0.00000000E+00 -1.38777878E-17  0.00000000E+00  0.00000000E+00
 -1.11022302E-16  0.00000000E+00  0.00000000E+00  0.00000000E+00  0.00000000E+00
  0.00000000E+00 -1.11022302E-16 -2.85670017E-17  0.00000000E+00  0.00000000E+00
 -1.00817129E-33  0.00000000E+00  0.00000000E+00  0.00000000E+00  0.00000000E+00
  0.00000000E+00  0.00000000E+00  5.72427953E-17  0.00000000E+00  0.00000000E+00
  1.47944850E-33  0.00000000E+00  5.03603662E-01  0.00000000E+00  0.00000000E+00
  2.16790231E-17  0.00000000E+00  0.00000000E+00  0.00000000E+00  1.00000000E+00
  0.00000000E+00  0.00000000E+00  0.00000000E+00  0.00000000E+00  0.00000000E+00
  7.00256249E-18  0.00000000E+00  0.00000000E+00  5.44306192E-17  0.00000000E+00
  0.00000000E+00 -2.74128131E-17  0.00000000E+00  0.00000000E+00  1.52651318E-16
  0.00000000E+00  0.00000000E+00  0.00000000E+00 -2.69332275E-17  0.00000000E+00
  0.00000000E+00  0.00000000E+00  0.00000000E+00  0.00000000E+00  0.00000000E+00
  0.00000000E+00  0.00000000E+00  0.00000000E+00  5.39690249E-17  0.00000000E+00
  0.00000000E+00  0.00000000E+00  0.00000000E+00  5.03603662E-01  0.00000000E+00
  0.00000000E+00  0.00000000E+00  2.27318056E-16  0.00000000E+00  0.00000000E+00
  1.00000000E+00  0.00000000E+00  0.00000000E+00  0.00000000E+00  0.00000000E+00
  0.00000000E+00  0.00000000E+00  7.00256249E-18  0.00000000E+00  0.00000000E+00
  5.44306192E-17  0.00000000E+00  0.00000000E+00 -2.74128131E-17  0.00000000E+00
  0.00000000E+00  1.52651318E-16  0.00000000E+00  0.00000000E+00  0.00000000E+00
 -2.69332275E-17  0.00000000E+00  0.00000000E+00  0.00000000E+00  0.00000000E+00
  0.00000000E+00  0.00000000E+00  0.00000000E+00  0.00000000E+00  0.00000000E+00
  5.39690249E-17  0.00000000E+00  0.00000000E+00  0.00000000E+00  0.00000000E+00
  5.03603662E-01  0.00000000E+00  0.00000000E+00  0.00000000E+00 -2.29925895E-16
  0.00000000E+00  0.00000000E+00  1.00000000E+00  8.60430184E-36 -3.34509418E-35
  1.44261283E-33 -1.69284068E-33  0.00000000E+00  0.00000000E+00  0.00000000E+00
  6.36650024E-18  0.00000000E+00  0.00000000E+00  9.38766056E-18  0.00000000E+00
  0.00000000E+00  3.27997594E-17  0.00000000E+00  0.00000000E+00 -1.87805655E-17
  9.61510939E-35  0.00000000E+00  0.00000000E+00 -2.12925859E-17  0.00000000E+00
  0.00000000E+00  0.00000000E+00  0.00000000E+00  0.00000000E+00  0.00000000E+00
 -1.62623463E-34  0.00000000E+00  0.00000000E+00  4.26662605E-17  0.00000000E+00
 -2.13248132E-18  0.00000000E+00  0.00000000E+00  5.03603662E-01  0.00000000E+00
  0.00000000E+00  0.00000000E+00  2.18892113E-17  0.00000000E+00  0.00000000E+00
  1.00000000E+00  0.00000000E+00  0.00000000E+00  0.00000000E+00  0.00000000E+00
  0.00000000E+00  0.00000000E+00  0.00000000E+00  0.00000000E+00  0.00000000E+00
  0.00000000E+00  0.00000000E+00  0.00000000E+00  0.00000000E+00  0.00000000E+00
  0.00000000E+00  0.00000000E+00  0.00000000E+00  0.00000000E+00  0.00000000E+00
  0.00000000E+00  0.00000000E+00 -2.12925859E-17  0.00000000E+00  0.00000000E+00
  0.00000000E+00  0.00000000E+00  0.00000000E+00  0.00000000E+00  0.00000000E+00
  0.00000000E+00  0.00000000E+00  4.26662605E-17  0.00000000E+00  0.00000000E+00
  0.00000000E+00  0.00000000E+00  5.03603662E-01  0.00000000E+00  0.00000000E+00
  0.00000000E+00  0.00000000E+00  0.00000000E+00  0.00000000E+00  1.00000000E+00
  0.00000000E+00  0.00000000E+00  0.00000000E+00  0.00000000E+00  0.00000000E+00
  1.24084101E-18  0.00000000E+00  0.00000000E+00  6.27573243E-18  0.00000000E+00
  0.00000000E+00  1.00170241E-16  0.00000000E+00  0.00000000E+00 -6.99335550E-17
  0.00000000E+00  0.00000000E+00  0.00000000E+00  2.83070396E-33  0.00000000E+00
  0.00000000E+00  0.00000000E+00  0.00000000E+00  0.00000000E+00  0.00000000E+00
  0.00000000E+00  0.00000000E+00  0.00000000E+00  5.10785968E-33  0.00000000E+00
  0.00000000E+00  0.00000000E+00  0.00000000E+00  2.35902988E-16  0.00000000E+00
  0.00000000E+00  0.00000000E+00  5.03603662E-01  0.00000000E+00  0.00000000E+00
  2.17072045E-16  0.00000000E+00  0.00000000E+00  0.00000000E+00  1.00000000E+00
  0.00000000E+00  0.00000000E+00  0.00000000E+00  0.00000000E+00  0.00000000E+00
  0.00000000E+00 -1.16915156E-18  0.00000000E+00  0.00000000E+00  8.31429025E-18
  0.00000000E+00  0.00000000E+00 -9.28671495E-17  0.00000000E+00  0.00000000E+00
  3.48414626E-17  0.00000000E+00  0.00000000E+00  0.00000000E+00 -2.52425812E-33
  0.00000000E+00  0.00000000E+00  0.00000000E+00  0.00000000E+00  0.00000000E+00
  0.00000000E+00  0.00000000E+00  0.00000000E+00  0.00000000E+00 -5.35219747E-33
  0.00000000E+00  0.00000000E+00  0.00000000E+00  0.00000000E+00 -1.85730182E-16
  0.00000000E+00  0.00000000E+00  0.00000000E+00  5.03603662E-01  0.00000000E+00
  0.00000000E+00 -1.01582322E-16  0.00000000E+00  0.00000000E+00  0.00000000E+00
  1.00000000E+00  1.73472348E-17 -7.63278329E-17  0.00000000E+00 -2.22044605E-16
 -1.66533454E-16  0.00000000E+00  0.00000000E+00  0.00000000E+00  0.00000000E+00
  0.00000000E+00 -4.93038066E-32  0.00000000E+00  0.00000000E+00 -2.46519033E-32
  0.00000000E+00  0.00000000E+00 -1.84889275E-32  0.00000000E+00  0.00000000E+00
  0.00000000E+00  7.68558483E-18  0.00000000E+00 -4.44089210E-16  0.00000000E+00
  0.00000000E+00 -8.23173008E-17  0.00000000E+00 -2.22044605E-16  0.00000000E+00
  0.00000000E+00  2.66758015E-17  0.00000000E+00 -1.05727453E-16  0.00000000E+00
  0.00000000E+00  6.52433224E-33  0.00000000E+00  0.00000000E+00  0.00000000E+00
  0.00000000E+00  0.00000000E+00  0.00000000E+00  0.00000000E+00  0.00000000E+00
  0.00000000E+00  0.00000000E+00  1.00000000E+00  0.00000000E+00  0.00000000E+00
  0.00000000E+00  0.00000000E+00  0.00000000E+00  0.00000000E+00  0.00000000E+00
  0.00000000E+00  3.03510829E-33  0.00000000E+00  0.00000000E+00  3.36094836E-33
  0.00000000E+00  0.00000000E+00 -8.47055811E-34  0.00000000E+00  0.00000000E+00
  0.00000000E+00 -1.36913242E-17  0.00000000E+00  0.00000000E+00  0.00000000E+00
  0.00000000E+00 -1.30286789E-16  0.00000000E+00  0.00000000E+00  0.00000000E+00
  0.00000000E+00 -7.54751983E-18  0.00000000E+00  0.00000000E+00  0.00000000E+00
  0.00000000E+00 -1.02370166E-16  0.00000000E+00  0.00000000E+00  0.00000000E+00
 -1.15955613E-32  0.00000000E+00  0.00000000E+00  0.00000000E+00  0.00000000E+00
  0.00000000E+00  0.00000000E+00  0.00000000E+00  0.00000000E+00  0.00000000E+00
  1.00000000E+00  0.00000000E+00  0.00000000E+00  0.00000000E+00  0.00000000E+00
  0.00000000E+00  0.00000000E+00  0.00000000E+00  0.00000000E+00  0.00000000E+00
  3.03510829E-33  0.00000000E+00  0.00000000E+00  3.36094836E-33  0.00000000E+00
  0.00000000E+00 -8.47055811E-34  0.00000000E+00  0.00000000E+00  0.00000000E+00
 -1.36913242E-17  0.00000000E+00  0.00000000E+00  0.00000000E+00  0.00000000E+00
 -1.30286789E-16  0.00000000E+00  0.00000000E+00  0.00000000E+00  0.00000000E+00
 -7.54751983E-18  0.00000000E+00  0.00000000E+00  0.00000000E+00  0.00000000E+00
 -1.02370166E-16  0.00000000E+00  0.00000000E+00  0.00000000E+00  8.42705125E-33
  0.00000000E+00  0.00000000E+00  0.00000000E+00  0.00000000E+00  0.00000000E+00
  0.00000000E+00  0.00000000E+00  0.00000000E+00  0.00000000E+00  1.00000000E+00
 -4.22958488E-20  1.27622377E-18  1.37692846E-17  9.41113125E-18 -3.28759981E-17
  0.00000000E+00  0.00000000E+00  0.00000000E+00  0.00000000E+00  0.00000000E+00
 -1.52729910E-33  0.00000000E+00  0.00000000E+00 -5.80188677E-33  0.00000000E+00
  0.00000000E+00 -3.41311662E-34 -3.49837920E-18  0.00000000E+00  0.00000000E+00
 -2.84372376E-17  0.00000000E+00 -1.18089949E-17  0.00000000E+00  0.00000000E+00
 -1.48415390E-16  0.00000000E+00 -1.73389722E-17  0.00000000E+00  0.00000000E+00
  1.67460580E-16  0.00000000E+00  6.86802485E-34  0.00000000E+00  0.00000000E+00
 -9.15626599E-17  0.00000000E+00  0.00000000E+00  0.00000000E+00  0.00000000E+00
  0.00000000E+00  0.00000000E+00  0.00000000E+00  0.00000000E+00  0.00000000E+00
  0.00000000E+00 -2.70406822E-17  0.00000000E+00  0.00000000E+00  1.00000000E+00
  0.00000000E+00  0.00000000E+00  0.00000000E+00  0.00000000E+00  0.00000000E+00
  0.00000000E+00  0.00000000E+00  0.00000000E+00  0.00000000E+00  0.00000000E+00
  0.00000000E+00  0.00000000E+00  0.00000000E+00  0.00000000E+00  0.00000000E+00
  0.00000000E+00  0.00000000E+00  0.00000000E+00  0.00000000E+00  0.00000000E+00
  0.00000000E+00  1.63239220E-17  0.00000000E+00  0.00000000E+00  0.00000000E+00
  0.00000000E+00  2.66403987E-16  0.00000000E+00  0.00000000E+00  0.00000000E+00
  0.00000000E+00  8.83400049E-17  0.00000000E+00  0.00000000E+00  0.00000000E+00
  0.00000000E+00 -9.15626599E-17  0.00000000E+00  0.00000000E+00  0.00000000E+00
  0.00000000E+00  0.00000000E+00  0.00000000E+00  0.00000000E+00  0.00000000E+00
  0.00000000E+00  0.00000000E+00  0.00000000E+00  0.00000000E+00  0.00000000E+00
  1.00000000E+00  0.00000000E+00  0.00000000E+00  0.00000000E+00  0.00000000E+00
  0.00000000E+00  0.00000000E+00  0.00000000E+00  0.00000000E+00  6.34668433E-33
  0.00000000E+00  0.00000000E+00 -2.15667329E-32  0.00000000E+00  0.00000000E+00
 -1.79550969E-33  0.00000000E+00  0.00000000E+00  0.00000000E+00 -7.46340002E-17
  0.00000000E+00  0.00000000E+00  0.00000000E+00  0.00000000E+00 -2.50726382E-16
  0.00000000E+00  0.00000000E+00  0.00000000E+00  0.00000000E+00 -6.42763994E-17
  0.00000000E+00  0.00000000E+00  0.00000000E+00  0.00000000E+00 -2.09493906E-32
  0.00000000E+00  0.00000000E+00  0.00000000E+00 -6.99321367E-17  0.00000000E+00
  0.00000000E+00  0.00000000E+00  0.00000000E+00  0.00000000E+00  0.00000000E+00
  0.00000000E+00  0.00000000E+00  0.00000000E+00  3.39011896E-16  0.00000000E+00
  0.00000000E+00  0.00000000E+00  1.00000000E+00  0.00000000E+00  0.00000000E+00
  0.00000000E+00  0.00000000E+00  0.00000000E+00  0.00000000E+00  0.00000000E+00
  0.00000000E+00  0.00000000E+00 -5.01376404E-33  0.00000000E+00  0.00000000E+00
  1.56291372E-32  0.00000000E+00  0.00000000E+00  2.79124821E-33  0.00000000E+00
  0.00000000E+00  0.00000000E+00  2.86945741E-17  0.00000000E+00  0.00000000E+00
  0.00000000E+00  0.00000000E+00  2.49448211E-16  0.00000000E+00  0.00000000E+00
  0.00000000E+00  0.00000000E+00  7.99506648E-17  0.00000000E+00  0.00000000E+00
  0.00000000E+00  0.00000000E+00  2.22521000E-32  0.00000000E+00  0.00000000E+00
  0.00000000E+00 -6.99321367E-17  0.00000000E+00  0.00000000E+00  0.00000000E+00
  0.00000000E+00  0.00000000E+00  0.00000000E+00  0.00000000E+00  0.00000000E+00
  0.00000000E+00 -2.04587185E-16  0.00000000E+00  0.00000000E+00  0.00000000E+00
  1.00000000E+00  1.63177115E-17 -7.26620609E-17  1.36723188E-17 -1.14687508E-16
 -1.05214857E-16  0.00000000E+00  0.00000000E+00  0.00000000E+00  0.00000000E+00
  0.00000000E+00 -4.94371457E-33  0.00000000E+00  0.00000000E+00 -6.45638160E-33
  0.00000000E+00  0.00000000E+00  1.16778832E-33  1.27823703E-17  0.00000000E+00
  0.00000000E+00  2.60020331E-17  0.00000000E+00 -9.92322274E-17  0.00000000E+00