Jobname.Temp
SP        R                             cc-pVQZ             
Number of atoms                            I                3
Charge                                     I                0
Multiplicity                               I                1
Number of electrons                        I               10
Number of alpha electrons                  I                5
Number of beta electrons                   I                5
Atomic numbers                             I   N=           3
           8           1           1
Current cartesian coordinates              R   N=           9
  0.00000000E+00  0.00000000E+00  2.21664874E-01 -1.43090062E+00 -8.76173933E-17
 -8.86659498E-01  1.43090062E+00  8.76173933E-17 -8.86659498E-01
Nuclear charges                            R   N=           3
  8.00000000E+00  1.00000000E+00  1.00000000E+00
Number of basis functions                  I              140
Number of contracted shells                I               35
Number of primitive shells                 I               55
Highest angular momentum                   I                4
Largest degree of contraction              I                8
Shell types                                I   N=          35
           0           0           0           0           0           1
           1           1           1           2           2           2
           3           3           4           0           0           0
           0           1           1           1           2           2
           3           0           0           0           0           1
           1           1           2           2           3
Number of primitives per shell             I   N=          35
           8           8           1           1           1           3
           1           1           1           1           1           1
           1           1           1           3           1           1
           1           1           1           1           1           1
           1           3           1           1           1           1
           1           1           1           1           1
Shell to atom map                          I   N=          35
           1           1           1           1           1           1
           1           1           1           1           1           1
           1           1           1           2           2           2
           2           2           2           2           2           2
           2           3           3           3           3           3
           3           3           3           3           3
Primitive exponents                        R   N=          55
  6.14200000E+04  9.19900000E+03  2.09100000E+03  5.90900000E+02  1.92300000E+02
  6.93200000E+01  2.69700000E+01  1.11000000E+01  6.14200000E+04  9.19900000E+03
  5.90900000E+02  1.92300000E+02  6.93200000E+01  2.69700000E+01  1.11000000E+01
  4.68200000E+00  1.42800000E+00  5.54700000E-01  2.06700000E-01  6.34200000E+01
  1.46600000E+01  4.45900000E+00  1.53100000E+00  5.30200000E-01  1.75000000E-01
  3.77500000E+00  1.30000000E+00  4.44000000E-01  2.66600000E+00  8.59000000E-01
  1.84600000E+00  8.26400000E+01  1.24100000E+01  2.82400000E+00  7.97700000E-01
  2.58100000E-01  8.98900000E-02  2.29200000E+00  8.38000000E-01  2.92000000E-01
  2.06200000E+00  6.62000000E-01  1.39700000E+00  8.26400000E+01  1.24100000E+01
  2.82400000E+00  7.97700000E-01  2.58100000E-01  8.98900000E-02  2.29200000E+00
  8.38000000E-01  2.92000000E-01  2.06200000E+00  6.62000000E-01  1.39700000E+00
Contraction coefficients                   R   N=          55
  1.55513906E-04  1.18440926E-03  6.24876819E-03  2.55912773E-02  8.77566873E-02
  2.30729100E-01  4.42804310E-01  3.33680461E-01  2.66555235E-06 -7.86556431E-06
 -4.74599411E-04 -2.15914110E-03 -2.37542227E-02 -1.01921545E-01 -4.53228586E-01
 -4.84793008E-01  1.00000000E+00  1.00000000E+00  1.00000000E+00  3.13275025E-02
  2.16654248E-01  8.35242842E-01  1.00000000E+00  1.00000000E+00  1.00000000E+00
  1.00000000E+00  1.00000000E+00  1.00000000E+00  1.00000000E+00  1.00000000E+00
  1.00000000E+00  2.29507578E-02  1.75540118E-01  8.64703551E-01  1.00000000E+00
  1.00000000E+00  1.00000000E+00  1.00000000E+00  1.00000000E+00  1.00000000E+00
  1.00000000E+00  1.00000000E+00  1.00000000E+00  2.29507578E-02  1.75540118E-01
  8.64703551E-01  1.00000000E+00  1.00000000E+00  1.00000000E+00  1.00000000E+00
  1.00000000E+00  1.00000000E+00  1.00000000E+00  1.00000000E+00  1.00000000E+00
Coordinates of each shell                  R   N=         105
  0.00000000E+00  0.00000000E+00  2.21664874E-01  0.00000000E+00  0.00000000E+00
  2.21664874E-01  0.00000000E+00  0.00000000E+00  2.21664874E-01  0.00000000E+00
  0.00000000E+00  2.21664874E-01  0.00000000E+00  0.00000000E+00  2.21664874E-01
  0.00000000E+00  0.00000000E+00  2.21664874E-01  0.00000000E+00  0.00000000E+00
  2.21664874E-01  0.00000000E+00  0.00000000E+00  2.21664874E-01  0.00000000E+00
  0.00000000E+00  2.21664874E-01  0.00000000E+00  0.00000000E+00  2.21664874E-01
  0.00000000E+00  0.00000000E+00  2.21664874E-01  0.00000000E+00  0.00000000E+00
  2.21664874E-01  0.00000000E+00  0.00000000E+00  2.21664874E-01  0.00000000E+00
  0.00000000E+00  2.21664874E-01  0.00000000E+00  0.00000000E+00  2.21664874E-01
 -1.43090062E+00 -8.76173933E-17 -8.86659498E-01 -1.43090062E+00 -8.76173933E-17
 -8.86659498E-01 -1.43090062E+00 -8.76173933E-17 -8.86659498E-01 -1.43090062E+00
 -8.76173933E-17 -8.86659498E-01 -1.43090062E+00 -8.76173933E-17 -8.86659498E-01
 -1.43090062E+00 -8.76173933E-17 -8.86659498E-01 -1.43090062E+00 -8.76173933E-17
 -8.86659498E-01 -1.43090062E+00 -8.76173933E-17 -8.86659498E-01 -1.43090062E+00
 -8.76173933E-17 -8.86659498E-01 -1.43090062E+00 -8.76173933E-17 -8.86659498E-01
  1.43090062E+00  8.76173933E-17 -8.86659498E-01  1.43090062E+00  8.76173933E-17
 -8.86659498E-01  1.43090062E+00  8.76173933E-17 -8.86659498E-01  1.43090062E+00
  8.76173933E-17 -8.86659498E-01  1.43090062E+00  8.76173933E-17 -8.86659498E-01
  1.43090062E+00  8.76173933E-17 -8.86659498E-01  1.43090062E+00  8.76173933E-17
 -8.86659498E-01  1.43090062E+00  8.76173933E-17 -8.86659498E-01  1.43090062E+00
  8.76173933E-17 -8.86659498E-01  1.43090062E+00  8.76173933E-17 -8.86659498E-01
Overlap Matrix                             R   N=        9870
  1.00000000E+00 -8.37622615E-01  1.00000000E+00  3.38518906E-01 -6.40310154E-01
  1.00000000E+00  1.79447310E-01 -3.77069215E-01  8.50646782E-01  1.00000000E+00
  8.83146827E-02 -1.94909691E-01  5.41925282E-01  8.38831376E-01  1.00000000E+00
  0.00000000E+00  0.00000000E+00  0.00000000E+00  0.00000000E+00  0.00000000E+00
  1.00000000E+00  0.00000000E+00  0.00000000E+00  0.00000000E+00  0.00000000E+00
  0.00000000E+00  0.00000000E+00  1.00000000E+00  2.23572581E-18  1.27020357E-17
 -1.75518153E-17 -5.92192871E-17  2.58472874E-17  0.00000000E+00  0.00000000E+00
  1.00000000E+00  0.00000000E+00  0.00000000E+00  0.00000000E+00  0.00000000E+00
  0.00000000E+00  6.52075582E-01  0.00000000E+00  0.00000000E+00  1.00000000E+00
  0.00000000E+00  0.00000000E+00  0.00000000E+00  0.00000000E+00  0.00000000E+00
  0.00000000E+00  6.52075582E-01  0.00000000E+00  0.00000000E+00  1.00000000E+00
  2.09039256E-17 -1.85268645E-17  1.37247019E-16  0.00000000E+00  0.00000000E+00
  0.00000000E+00  0.00000000E+00  6.52075582E-01  0.00000000E+00  0.00000000E+00
  1.00000000E+00  0.00000000E+00  0.00000000E+00  0.00000000E+00  0.00000000E+00
  0.00000000E+00  2.67244679E-01  0.00000000E+00  0.00000000E+00  7.14567562E-01
  0.00000000E+00  0.00000000E+00  1.00000000E+00  0.00000000E+00  0.00000000E+00
  0.00000000E+00  0.00000000E+00  0.00000000E+00  0.00000000E+00  2.67244679E-01
  0.00000000E+00  0.00000000E+00  7.14567562E-01  0.00000000E+00  0.00000000E+00
  1.00000000E+00 -2.02841525E-18  9.73901761E-18 -3.38637827E-17  0.00000000E+00
  0.00000000E+00  0.00000000E+00  0.00000000E+00  2.67244679E-01  0.00000000E+00
  0.00000000E+00  7.14567562E-01  0.00000000E+00  0.00000000E+00  1.00000000E+00
  0.00000000E+00  0.00000000E+00  0.00000000E+00  0.00000000E+00  0.00000000E+00
  7.97679543E-02  0.00000000E+00  0.00000000E+00  2.86842812E-01  0.00000000E+00
  0.00000000E+00  6.93651684E-01  0.00000000E+00  0.00000000E+00  1.00000000E+00
  0.00000000E+00  0.00000000E+00  0.00000000E+00  0.00000000E+00  0.00000000E+00
  0.00000000E+00  7.97679543E-02  0.00000000E+00  0.00000000E+00  2.86842812E-01
  0.00000000E+00  0.00000000E+00  6.93651684E-01  0.00000000E+00  0.00000000E+00
  1.00000000E+00 -1.63774608E-18  1.44601344E-18 -1.14384890E-17 -1.83252494E-17
 -2.31017514E-17  0.00000000E+00  0.00000000E+00  7.97679543E-02  0.00000000E+00
  0.00000000E+00  2.86842812E-01  0.00000000E+00  0.00000000E+00  6.93651684E-01
  0.00000000E+00  0.00000000E+00  1.00000000E+00  1.17126547E-01 -3.63668534E-01
  7.06367364E-01  5.50196908E-01  3.23558680E-01  0.00000000E+00  0.00000000E+00
  7.89452650E-18  0.00000000E+00  0.00000000E+00  0.00000000E+00  0.00000000E+00
  0.00000000E+00 -2.18054771E-17  0.00000000E+00  0.00000000E+00  0.00000000E+00
  1.00000000E+00  1.17126547E-01 -3.63668534E-01  7.06367364E-01  5.50196908E-01
  3.23558680E-01  0.00000000E+00  0.00000000E+00  7.89452650E-18  0.00000000E+00
  0.00000000E+00  0.00000000E+00  0.00000000E+00  0.00000000E+00 -2.18054771E-17
  0.00000000E+00  0.00000000E+00  0.00000000E+00  3.33333333E-01  1.00000000E+00
  1.17126547E-01 -3.63668534E-01  7.06367364E-01  5.50196908E-01  3.23558680E-01
  0.00000000E+00  0.00000000E+00  2.36835795E-17  0.00000000E+00  0.00000000E+00
  0.00000000E+00  0.00000000E+00  0.00000000E+00 -6.54164314E-17  0.00000000E+00
  0.00000000E+00  0.00000000E+00  3.33333333E-01  3.33333333E-01  1.00000000E+00
  0.00000000E+00  0.00000000E+00  0.00000000E+00  0.00000000E+00  0.00000000E+00
  0.00000000E+00  0.00000000E+00  0.00000000E+00  0.00000000E+00  0.00000000E+00
  0.00000000E+00  0.00000000E+00  0.00000000E+00  0.00000000E+00  0.00000000E+00
  0.00000000E+00  0.00000000E+00  0.00000000E+00  0.00000000E+00  0.00000000E+00
  1.00000000E+00  0.00000000E+00  0.00000000E+00  0.00000000E+00  0.00000000E+00
  0.00000000E+00  1.36737210E-17  0.00000000E+00  0.00000000E+00  0.00000000E+00
  0.00000000E+00  0.00000000E+00 -3.77681943E-17  0.00000000E+00  0.00000000E+00
  0.00000000E+00  0.00000000E+00  0.00000000E+00  0.00000000E+00  0.00000000E+00
  0.00000000E+00  0.00000000E+00  1.00000000E+00  0.00000000E+00  0.00000000E+00
  0.00000000E+00  0.00000000E+00  0.00000000E+00  0.00000000E+00  1.36737210E-17
  0.00000000E+00  0.00000000E+00  0.00000000E+00  0.00000000E+00  0.00000000E+00
 -3.77681943E-17  0.00000000E+00  0.00000000E+00  0.00000000E+00  0.00000000E+00
  0.00000000E+00  0.00000000E+00  0.00000000E+00  0.00000000E+00  0.00000000E+00
  1.00000000E+00  2.64778140E-02 -1.18985587E-01  5.49351695E-01  7.09209710E-01
  5.68661224E-01  0.00000000E+00  0.00000000E+00  4.77427864E-20  0.00000000E+00
  0.00000000E+00  0.00000000E+00  0.00000000E+00  0.00000000E+00  0.00000000E+00
  0.00000000E+00  0.00000000E+00 -1.22917289E-17  6.21705002E-01  2.07235001E-01
  2.07235001E-01  0.00000000E+00  0.00000000E+00  0.00000000E+00  1.00000000E+00
  2.64778140E-02 -1.18985587E-01  5.49351695E-01  7.09209710E-01  5.68661224E-01
  0.00000000E+00  0.00000000E+00  4.77427864E-20  0.00000000E+00  0.00000000E+00
  0.00000000E+00  0.00000000E+00  0.00000000E+00  0.00000000E+00  0.00000000E+00
  0.00000000E+00 -1.22917289E-17  2.07235001E-01  6.21705002E-01  2.07235001E-01
  0.00000000E+00  0.00000000E+00  0.00000000E+00  3.33333333E-01  1.00000000E+00
  2.64778140E-02 -1.18985587E-01  5.49351695E-01  7.09209710E-01  5.68661224E-01
  0.00000000E+00  0.00000000E+00  1.43228359E-19  0.00000000E+00  0.00000000E+00
  0.00000000E+00  0.00000000E+00  0.00000000E+00  0.00000000E+00  0.00000000E+00
  0.00000000E+00 -3.68751867E-17  2.07235001E-01  2.07235001E-01  6.21705002E-01
  0.00000000E+00  0.00000000E+00  0.00000000E+00  3.33333333E-01  3.33333333E-01
  1.00000000E+00  0.00000000E+00  0.00000000E+00  0.00000000E+00  0.00000000E+00
  0.00000000E+00  0.00000000E+00  0.00000000E+00  0.00000000E+00  0.00000000E+00
  0.00000000E+00  0.00000000E+00  0.00000000E+00  0.00000000E+00  0.00000000E+00
  0.00000000E+00  0.00000000E+00  0.00000000E+00  0.00000000E+00  0.00000000E+00
  0.00000000E+00  6.21705002E-01  0.00000000E+00  0.00000000E+00  0.00000000E+00
  0.00000000E+00  0.00000000E+00  1.00000000E+00  0.00000000E+00  0.00000000E+00
  0.00000000E+00  0.00000000E+00  0.00000000E+00  8.26929317E-20  0.00000000E+00
  0.00000000E+00  0.00000000E+00  0.00000000E+00  0.00000000E+00  0.00000000E+00
  0.00000000E+00  0.00000000E+00 -2.12898989E-17  0.00000000E+00  0.00000000E+00
  0.00000000E+00  0.00000000E+00  0.00000000E+00  0.00000000E+00  6.21705002E-01
  0.00000000E+00  0.00000000E+00  0.00000000E+00  0.00000000E+00  0.00000000E+00
  1.00000000E+00  0.00000000E+00  0.00000000E+00  0.00000000E+00  0.00000000E+00
  0.00000000E+00  0.00000000E+00  8.26929317E-20  0.00000000E+00  0.00000000E+00
  0.00000000E+00  0.00000000E+00  0.00000000E+00  0.00000000E+00  0.00000000E+00
  0.00000000E+00 -2.12898989E-17  0.00000000E+00  0.00000000E+00  0.00000000E+00
  0.00000000E+00  0.00000000E+00  0.00000000E+00  6.21705002E-01  0.00000000E+00
  0.00000000E+00  0.00000000E+00  0.00000000E+00  0.00000000E+00  1.00000000E+00
  4.70003785E-03 -2.55124977E-02  2.14889950E-01  5.08616634E-01  7.07926061E-01
  0.00000000E+00  0.00000000E+00 -3.06915996E-19  0.00000000E+00  0.00000000E+00
  0.00000000E+00  0.00000000E+00  0.00000000E+00  0.00000000E+00  0.00000000E+00
  0.00000000E+00  0.00000000E+00  1.81090854E-01  6.03636180E-02  6.03636180E-02
  0.00000000E+00  0.00000000E+00  0.00000000E+00  6.17324292E-01  2.05774764E-01
  2.05774764E-01  0.00000000E+00  0.00000000E+00  0.00000000E+00  1.00000000E+00
  4.70003785E-03 -2.55124977E-02  2.14889950E-01  5.08616634E-01  7.07926061E-01
  0.00000000E+00  0.00000000E+00 -3.06915996E-19  0.00000000E+00  0.00000000E+00
  0.00000000E+00  0.00000000E+00  0.00000000E+00  0.00000000E+00  0.00000000E+00
  0.00000000E+00  0.00000000E+00  6.03636180E-02  1.81090854E-01  6.03636180E-02
  0.00000000E+00  0.00000000E+00  0.00000000E+00  2.05774764E-01  6.17324292E-01
  2.05774764E-01  0.00000000E+00  0.00000000E+00  0.00000000E+00  3.33333333E-01
  1.00000000E+00  4.70003785E-03 -2.55124977E-02  2.14889950E-01  5.08616634E-01
  7.07926061E-01  0.00000000E+00  0.00000000E+00 -9.20747988E-19  0.00000000E+00
  0.00000000E+00  0.00000000E+00  0.00000000E+00  0.00000000E+00  0.00000000E+00
  0.00000000E+00  0.00000000E+00  0.00000000E+00  6.03636180E-02  6.03636180E-02
  1.81090854E-01  0.00000000E+00  0.00000000E+00  0.00000000E+00  2.05774764E-01
  2.05774764E-01  6.17324292E-01  0.00000000E+00  0.00000000E+00  0.00000000E+00
  3.33333333E-01  3.33333333E-01  1.00000000E+00  0.00000000E+00  0.00000000E+00
  0.00000000E+00  0.00000000E+00  0.00000000E+00  0.00000000E+00  0.00000000E+00
  0.00000000E+00  0.00000000E+00  0.00000000E+00  0.00000000E+00  0.00000000E+00
  0.00000000E+00  0.00000000E+00  0.00000000E+00  0.00000000E+00  0.00000000E+00
  0.00000000E+00  0.00000000E+00  0.00000000E+00  1.81090854E-01  0.00000000E+00
  0.00000000E+00  0.00000000E+00  0.00000000E+00  0.00000000E+00  6.17324292E-01
  0.00000000E+00  0.00000000E+00  0.00000000E+00  0.00000000E+00  0.00000000E+00
  1.00000000E+00  0.00000000E+00  0.00000000E+00  0.00000000E+00  0.00000000E+00
  0.00000000E+00 -5.31594099E-19  0.00000000E+00  0.00000000E+00  0.00000000E+00
  0.00000000E+00  0.00000000E+00  0.00000000E+00  0.00000000E+00  0.00000000E+00
  0.00000000E+00  0.00000000E+00  0.00000000E+00  0.00000000E+00  0.00000000E+00
  0.00000000E+00  0.00000000E+00  1.81090854E-01  0.00000000E+00  0.00000000E+00
  0.00000000E+00  0.00000000E+00  0.00000000E+00  6.17324292E-01  0.00000000E+00
  0.00000000E+00  0.00000000E+00  0.00000000E+00  0.00000000E+00  1.00000000E+00
  0.00000000E+00  0.00000000E+00  0.00000000E+00  0.00000000E+00  0.00000000E+00
  0.00000000E+00 -5.31594099E-19  0.00000000E+00  0.00000000E+00  0.00000000E+00
  0.00000000E+00  0.00000000E+00  0.00000000E+00  0.00000000E+00  0.00000000E+00
  0.00000000E+00  0.00000000E+00  0.00000000E+00  0.00000000E+00  0.00000000E+00
  0.00000000E+00  0.00000000E+00  1.81090854E-01  0.00000000E+00  0.00000000E+00
  0.00000000E+00  0.00000000E+00  0.00000000E+00  6.17324292E-01  0.00000000E+00
  0.00000000E+00  0.00000000E+00  0.00000000E+00  0.00000000E+00  1.00000000E+00
  0.00000000E+00  0.00000000E+00  0.00000000E+00  0.00000000E+00  0.00000000E+00
  4.69186166E-01  0.00000000E+00  0.00000000E+00  8.94949506E-01  0.00000000E+00
  0.00000000E+00  6.16874440E-01  0.00000000E+00  0.00000000E+00  2.33084921E-01
  0.00000000E+00  0.00000000E+00  0.00000000E+00  0.00000000E+00  0.00000000E+00
  0.00000000E+00  0.00000000E+00  0.00000000E+00  0.00000000E+00  0.00000000E+00
  0.00000000E+00  0.00000000E+00 -1.12575154E-16  0.00000000E+00  0.00000000E+00
  0.00000000E+00  0.00000000E+00  0.00000000E+00 -2.01143039E-17  0.00000000E+00
  1.00000000E+00  0.00000000E+00  0.00000000E+00  0.00000000E+00  0.00000000E+00
  0.00000000E+00  0.00000000E+00  4.69186166E-01  0.00000000E+00  0.00000000E+00
  8.94949506E-01  0.00000000E+00  0.00000000E+00  6.16874440E-01  0.00000000E+00
  0.00000000E+00  2.33084921E-01  0.00000000E+00  0.00000000E+00  0.00000000E+00
  0.00000000E+00  0.00000000E+00  0.00000000E+00  0.00000000E+00  0.00000000E+00
  0.00000000E+00  0.00000000E+00  0.00000000E+00  0.00000000E+00 -1.12575154E-16
  0.00000000E+00  0.00000000E+00  0.00000000E+00  0.00000000E+00  0.00000000E+00
 -2.01143039E-17  0.00000000E+00  1.00000000E+00  2.59627900E-19  2.32619901E-17
  0.00000000E+00 -1.52550667E-16 -4.84167737E-17  0.00000000E+00  0.00000000E+00
  4.69186166E-01  0.00000000E+00  0.00000000E+00  8.94949506E-01  0.00000000E+00
  0.00000000E+00  6.16874440E-01  0.00000000E+00  0.00000000E+00  2.33084921E-01
  0.00000000E+00  0.00000000E+00  0.00000000E+00  0.00000000E+00  0.00000000E+00
  0.00000000E+00 -6.49952952E-17 -6.49952952E-17 -3.24976476E-16  0.00000000E+00
  0.00000000E+00  0.00000000E+00 -1.16129988E-17 -1.16129988E-17 -5.80649938E-17
  0.00000000E+00  0.00000000E+00  0.00000000E+00  0.00000000E+00  0.00000000E+00
  1.00000000E+00  0.00000000E+00  0.00000000E+00  0.00000000E+00  0.00000000E+00
  0.00000000E+00  3.49710721E-01  0.00000000E+00  0.00000000E+00  6.67055977E-01
  0.00000000E+00  0.00000000E+00  4.59791060E-01  0.00000000E+00  0.00000000E+00
  1.73731243E-01  0.00000000E+00  0.00000000E+00  0.00000000E+00  0.00000000E+00
  0.00000000E+00  0.00000000E+00  0.00000000E+00  0.00000000E+00  0.00000000E+00
  0.00000000E+00  0.00000000E+00  0.00000000E+00 -8.39085654E-17  0.00000000E+00
  0.00000000E+00  0.00000000E+00  0.00000000E+00  0.00000000E+00 -1.49923169E-17
  0.00000000E+00  4.47213595E-01  0.00000000E+00  0.00000000E+00  1.00000000E+00
  0.00000000E+00  0.00000000E+00  0.00000000E+00  0.00000000E+00  0.00000000E+00
  0.00000000E+00  3.49710721E-01  0.00000000E+00  0.00000000E+00  6.67055977E-01
  0.00000000E+00  0.00000000E+00  4.59791060E-01  0.00000000E+00  0.00000000E+00
  1.73731243E-01  0.00000000E+00  0.00000000E+00  0.00000000E+00  0.00000000E+00
  0.00000000E+00  0.00000000E+00  0.00000000E+00  0.00000000E+00  0.00000000E+00
  0.00000000E+00  0.00000000E+00  0.00000000E+00 -8.39085654E-17  0.00000000E+00
  0.00000000E+00  0.00000000E+00  0.00000000E+00  0.00000000E+00 -1.49923169E-17
  0.00000000E+00  4.47213595E-01  0.00000000E+00  0.00000000E+00  1.00000000E+00
  1.93515211E-19  1.73384638E-17  0.00000000E+00 -1.13704554E-16 -3.60877324E-17
  0.00000000E+00  0.00000000E+00  3.49710721E-01  0.00000000E+00  0.00000000E+00
  6.67055977E-01  0.00000000E+00  0.00000000E+00  4.59791060E-01  0.00000000E+00
  0.00000000E+00  1.73731243E-01  0.00000000E+00  0.00000000E+00  0.00000000E+00
  0.00000000E+00  0.00000000E+00  0.00000000E+00 -1.45333898E-16 -4.84446328E-17
 -1.45333898E-16  0.00000000E+00  0.00000000E+00  0.00000000E+00 -2.59674546E-17
 -8.65581821E-18 -2.59674546E-17  0.00000000E+00  0.00000000E+00  0.00000000E+00
  0.00000000E+00  0.00000000E+00  4.47213595E-01  0.00000000E+00  0.00000000E+00
  1.00000000E+00  0.00000000E+00  0.00000000E+00  0.00000000E+00  0.00000000E+00
  0.00000000E+00  3.49710721E-01  0.00000000E+00  0.00000000E+00  6.67055977E-01
  0.00000000E+00  0.00000000E+00  4.59791060E-01  0.00000000E+00  0.00000000E+00
  1.73731243E-01  0.00000000E+00  0.00000000E+00  0.00000000E+00  0.00000000E+00
  0.00000000E+00  0.00000000E+00  0.00000000E+00  0.00000000E+00  0.00000000E+00
  0.00000000E+00  0.00000000E+00  0.00000000E+00 -2.51725696E-16  0.00000000E+00
  0.00000000E+00  0.00000000E+00  0.00000000E+00  0.00000000E+00 -4.49769508E-17
  0.00000000E+00  4.47213595E-01  0.00000000E+00  0.00000000E+00  3.33333333E-01
  0.00000000E+00  0.00000000E+00  1.00000000E+00  0.00000000E+00  0.00000000E+00
  0.00000000E+00  0.00000000E+00  0.00000000E+00  0.00000000E+00  3.49710721E-01
  0.00000000E+00  0.00000000E+00  6.67055977E-01  0.00000000E+00  0.00000000E+00
  4.59791060E-01  0.00000000E+00  0.00000000E+00  1.73731243E-01  0.00000000E+00
  0.00000000E+00  0.00000000E+00  0.00000000E+00  0.00000000E+00  0.00000000E+00
  0.00000000E+00  0.00000000E+00  0.00000000E+00  0.00000000E+00  0.00000000E+00
  0.00000000E+00 -2.51725696E-16  0.00000000E+00  0.00000000E+00  0.00000000E+00
  0.00000000E+00  0.00000000E+00 -4.49769508E-17  0.00000000E+00  4.47213595E-01
  0.00000000E+00  0.00000000E+00  3.33333333E-01  0.00000000E+00  0.00000000E+00
  1.00000000E+00  1.93515211E-19  1.73384638E-17  0.00000000E+00 -1.13704554E-16
 -3.60877324E-17  0.00000000E+00  0.00000000E+00  3.49710721E-01  0.00000000E+00
  0.00000000E+00  6.67055977E-01  0.00000000E+00  0.00000000E+00  4.59791060E-01
  0.00000000E+00  0.00000000E+00  1.73731243E-01  0.00000000E+00  0.00000000E+00
  0.00000000E+00  0.00000000E+00  0.00000000E+00  0.00000000E+00 -4.84446328E-17
 -1.45333898E-16 -1.45333898E-16  0.00000000E+00  0.00000000E+00  0.00000000E+00
 -8.65581821E-18 -2.59674546E-17 -2.59674546E-17  0.00000000E+00  0.00000000E+00
  0.00000000E+00  0.00000000E+00  0.00000000E+00  4.47213595E-01  0.00000000E+00
  0.00000000E+00  3.33333333E-01  0.00000000E+00  0.00000000E+00  1.00000000E+00
  0.00000000E+00  0.00000000E+00  0.00000000E+00  0.00000000E+00  0.00000000E+00
  0.00000000E+00  0.00000000E+00  0.00000000E+00  0.00000000E+00  0.00000000E+00
  0.00000000E+00  0.00000000E+00  0.00000000E+00  0.00000000E+00  0.00000000E+00
  0.00000000E+00  0.00000000E+00  0.00000000E+00  0.00000000E+00  0.00000000E+00
  0.00000000E+00  0.00000000E+00  0.00000000E+00  0.00000000E+00  0.00000000E+00
  0.00000000E+00 -1.45333898E-16  0.00000000E+00  0.00000000E+00  0.00000000E+00
  0.00000000E+00  0.00000000E+00 -2.59674546E-17  0.00000000E+00  0.00000000E+00
  0.00000000E+00  0.00000000E+00  0.00000000E+00  0.00000000E+00  0.00000000E+00
  0.00000000E+00  0.00000000E+00  0.00000000E+00  0.00000000E+00  1.00000000E+00
  0.00000000E+00  0.00000000E+00  0.00000000E+00  0.00000000E+00  0.00000000E+00
  9.97857909E-02  0.00000000E+00  0.00000000E+00  5.02332831E-01  0.00000000E+00
  0.00000000E+00  8.91329277E-01  0.00000000E+00  0.00000000E+00  6.26817198E-01
  0.00000000E+00  0.00000000E+00  0.00000000E+00  0.00000000E+00  0.00000000E+00
  0.00000000E+00 -1.64931661E-17  0.00000000E+00  0.00000000E+00  0.00000000E+00
  0.00000000E+00  0.00000000E+00  0.00000000E+00  0.00000000E+00  0.00000000E+00
  0.00000000E+00  0.00000000E+00  0.00000000E+00  3.30491432E-17  0.00000000E+00
  5.03603662E-01  0.00000000E+00  0.00000000E+00  2.25218404E-01  0.00000000E+00
  0.00000000E+00  2.25218404E-01  0.00000000E+00  0.00000000E+00  0.00000000E+00
  1.00000000E+00  0.00000000E+00  0.00000000E+00  0.00000000E+00  0.00000000E+00
  0.00000000E+00  0.00000000E+00  9.97857909E-02  0.00000000E+00  0.00000000E+00
  5.02332831E-01  0.00000000E+00  0.00000000E+00  8.91329277E-01  0.00000000E+00
  0.00000000E+00  6.26817198E-01  0.00000000E+00  0.00000000E+00  0.00000000E+00
  0.00000000E+00  0.00000000E+00  0.00000000E+00 -1.64931661E-17  0.00000000E+00
  0.00000000E+00  0.00000000E+00  0.00000000E+00  0.00000000E+00  0.00000000E+00
  0.00000000E+00  0.00000000E+00  0.00000000E+00  0.00000000E+00  0.00000000E+00
  3.30491432E-17  0.00000000E+00  5.03603662E-01  0.00000000E+00  0.00000000E+00
  2.25218404E-01  0.00000000E+00  0.00000000E+00  2.25218404E-01  0.00000000E+00
  0.00000000E+00  0.00000000E+00  1.00000000E+00  2.65650879E-19  2.82825414E-18
  2.85362047E-17 -4.67375504E-17  0.00000000E+00  0.00000000E+00  0.00000000E+00
  9.97857909E-02  0.00000000E+00  0.00000000E+00  5.02332831E-01  0.00000000E+00
  0.00000000E+00  8.91329277E-01  0.00000000E+00  0.00000000E+00  6.26817198E-01
 -9.52233389E-18 -9.52233389E-18 -4.76116694E-17  0.00000000E+00  0.00000000E+00
  0.00000000E+00  0.00000000E+00  0.00000000E+00  0.00000000E+00  0.00000000E+00
  0.00000000E+00  0.00000000E+00  1.90809318E-17  1.90809318E-17  9.54046588E-17
  0.00000000E+00  0.00000000E+00  0.00000000E+00  0.00000000E+00  0.00000000E+00
  5.03603662E-01  0.00000000E+00  0.00000000E+00  2.25218404E-01  0.00000000E+00
  0.00000000E+00  2.25218404E-01  0.00000000E+00  0.00000000E+00  0.00000000E+00
  1.00000000E+00  0.00000000E+00  0.00000000E+00  0.00000000E+00  0.00000000E+00
  0.00000000E+00  7.43759372E-02  0.00000000E+00  0.00000000E+00  3.74416786E-01
  0.00000000E+00  0.00000000E+00  6.64357618E-01  0.00000000E+00  0.00000000E+00
  4.67201955E-01  0.00000000E+00  0.00000000E+00  0.00000000E+00  0.00000000E+00
  0.00000000E+00  0.00000000E+00 -1.22932802E-17  0.00000000E+00  0.00000000E+00
  0.00000000E+00  0.00000000E+00  0.00000000E+00  0.00000000E+00  0.00000000E+00
  0.00000000E+00  0.00000000E+00  0.00000000E+00  0.00000000E+00  2.46333770E-17
  0.00000000E+00  2.25218404E-01  0.00000000E+00  0.00000000E+00  5.03603662E-01
  0.00000000E+00  0.00000000E+00  1.67867887E-01  0.00000000E+00  0.00000000E+00
  0.00000000E+00  4.47213595E-01  0.00000000E+00  0.00000000E+00  1.00000000E+00
  0.00000000E+00  0.00000000E+00  0.00000000E+00  0.00000000E+00  0.00000000E+00
  0.00000000E+00  7.43759372E-02  0.00000000E+00  0.00000000E+00  3.74416786E-01
  0.00000000E+00  0.00000000E+00  6.64357618E-01  0.00000000E+00  0.00000000E+00
  4.67201955E-01  0.00000000E+00  0.00000000E+00  0.00000000E+00  0.00000000E+00
  0.00000000E+00  0.00000000E+00 -1.22932802E-17  0.00000000E+00  0.00000000E+00
  0.00000000E+00  0.00000000E+00  0.00000000E+00  0.00000000E+00  0.00000000E+00
  0.00000000E+00  0.00000000E+00  0.00000000E+00  0.00000000E+00  2.46333770E-17
  0.00000000E+00  2.25218404E-01  0.00000000E+00  0.00000000E+00  5.03603662E-01
  0.00000000E+00  0.00000000E+00  1.67867887E-01  0.00000000E+00  0.00000000E+00
  0.00000000E+00  4.47213595E-01  0.00000000E+00  0.00000000E+00  1.00000000E+00
  1.98004475E-19  2.10805617E-18  2.12696312E-17 -3.48361133E-17  0.00000000E+00
  0.00000000E+00  0.00000000E+00  7.43759372E-02  0.00000000E+00  0.00000000E+00
  3.74416786E-01  0.00000000E+00  0.00000000E+00  6.64357618E-01  0.00000000E+00
  0.00000000E+00  4.67201955E-01 -2.12925859E-17 -7.09752862E-18 -2.12925859E-17
  0.00000000E+00  0.00000000E+00  0.00000000E+00  0.00000000E+00  0.00000000E+00
  0.00000000E+00  0.00000000E+00  0.00000000E+00  0.00000000E+00  4.26662605E-17
  1.42220868E-17  4.26662605E-17  0.00000000E+00  0.00000000E+00  0.00000000E+00
  0.00000000E+00  0.00000000E+00  2.25218404E-01  0.00000000E+00  0.00000000E+00
  5.03603662E-01  0.00000000E+00  0.00000000E+00  1.67867887E-01  0.00000000E+00
  0.00000000E+00  0.00000000E+00  4.47213595E-01  0.00000000E+00  0.00000000E+00
  1.00000000E+00  0.00000000E+00  0.00000000E+00  0.00000000E+00  0.00000000E+00
  0.00000000E+00  7.43759372E-02  0.00000000E+00  0.00000000E+00  3.74416786E-01
  0.00000000E+00  0.00000000E+00  6.64357618E-01  0.00000000E+00  0.00000000E+00
  4.67201955E-01  0.00000000E+00  0.00000000E+00  0.00000000E+00  0.00000000E+00
  0.00000000E+00  0.00000000E+00 -3.68798406E-17  0.00000000E+00  0.00000000E+00
  0.00000000E+00  0.00000000E+00  0.00000000E+00  0.00000000E+00  0.00000000E+00
  0.00000000E+00  0.00000000E+00  0.00000000E+00  0.00000000E+00  7.39001309E-17
  0.00000000E+00  2.25218404E-01  0.00000000E+00  0.00000000E+00  1.67867887E-01
  0.00000000E+00  0.00000000E+00  5.03603662E-01  0.00000000E+00  0.00000000E+00
  0.00000000E+00  4.47213595E-01  0.00000000E+00  0.00000000E+00  3.33333333E-01
  0.00000000E+00  0.00000000E+00  1.00000000E+00  0.00000000E+00  0.00000000E+00
  0.00000000E+00  0.00000000E+00  0.00000000E+00  0.00000000E+00  7.43759372E-02
  0.00000000E+00  0.00000000E+00  3.74416786E-01  0.00000000E+00  0.00000000E+00
  6.64357618E-01  0.00000000E+00  0.00000000E+00  4.67201955E-01  0.00000000E+00
  0.00000000E+00  0.00000000E+00  0.00000000E+00  0.00000000E+00  0.00000000E+00
 -3.68798406E-17  0.00000000E+00  0.00000000E+00  0.00000000E+00  0.00000000E+00
  0.00000000E+00  0.00000000E+00  0.00000000E+00  0.00000000E+00  0.00000000E+00
  0.00000000E+00  0.00000000E+00  7.39001309E-17  0.00000000E+00  2.25218404E-01
  0.00000000E+00  0.00000000E+00  1.67867887E-01  0.00000000E+00  0.00000000E+00
  5.03603662E-01  0.00000000E+00  0.00000000E+00  0.00000000E+00  4.47213595E-01
  0.00000000E+00  0.00000000E+00  3.33333333E-01  0.00000000E+00  0.00000000E+00
  1.00000000E+00  1.98004475E-19  2.10805617E-18  2.12696312E-17 -3.48361133E-17
  0.00000000E+00  0.00000000E+00  0.00000000E+00  7.43759372E-02  0.00000000E+00
  0.00000000E+00  3.74416786E-01  0.00000000E+00  0.00000000E+00  6.64357618E-01
  0.00000000E+00  0.00000000E+00  4.67201955E-01 -7.09752862E-18 -2.12925859E-17
 -2.12925859E-17  0.00000000E+00  0.00000000E+00  0.00000000E+00  0.00000000E+00