Jobname.Temp
SP        R                             cc-pVTZ             
Number of atoms                            I                3
Charge                                     I                0
Multiplicity                               I                1
Number of electrons                        I               10
Number of alpha electrons                  I                5
Number of beta electrons                   I                5
Atomic numbers                             I   N=           3
           8           1           1
Current cartesian coordinates              R   N=           9
  0.00000000E+00  0.00000000E+00  2.21664874E-01 -1.43090062E+00 -8.76173933E-17
 -8.86659498E-01  1.43090062E+00  8.76173933E-17 -8.86659498E-01
Nuclear charges                            R   N=           3
  8.00000000E+00  1.00000000E+00  1.00000000E+00
Number of basis functions                  I               58
Number of contracted shells                I               22
Number of primitive shells                 I               40
Highest angular momentum                   I                3
Largest degree of contraction              I                7
Shell types                                I   N=          22
           0           0           0           0           1           1
           1          -2          -2          -3           0           0
           0           1           1          -2           0           0
           0           1           1          -2
Number of primitives per shell             I   N=          22
           7           7           1           1           3           1
           1           1           1           1           3           1
           1           1           1           1           3           1
           1           1           1           1
Shell to atom map                          I   N=          22
           1           1           1           1           1           1
           1           1           1           1           2           2
           2           2           2           2           3           3
           3           3           3           3
Primitive exponents                        R   N=          40
  1.53300000E+04  2.29900000E+03  5.22400000E+02  1.47300000E+02  4.75500000E+01
  1.67600000E+01  6.20700000E+00  1.53300000E+04  2.29900000E+03  1.47300000E+02
  4.75500000E+01  1.67600000E+01  6.20700000E+00  6.88200000E-01  1.75200000E+00
  2.38400000E-01  3.44600000E+01  7.74900000E+00  2.28000000E+00  7.15600000E-01
  2.14000000E-01  2.31400000E+00  6.45000000E-01  1.42800000E+00  3.38700000E+01
  5.09500000E+00  1.15900000E+00  3.25800000E-01  1.02700000E-01  1.40700000E+00
  3.88000000E-01  1.05700000E+00  3.38700000E+01  5.09500000E+00  1.15900000E+00
  3.25800000E-01  1.02700000E-01  1.40700000E+00  3.88000000E-01  1.05700000E+00
Contraction coefficients                   R   N=          40
  5.19807566E-04  4.02025773E-03  2.07128269E-02  8.10105552E-02  2.35962988E-01
  4.42653444E-01  3.57064420E-01  2.39729119E-06  8.58121279E-06 -1.05276498E-03
 -1.00458896E-02 -6.64857111E-02 -1.70398750E-01  1.07306114E+00  1.00000000E+00
  1.00000000E+00  4.11634896E-02  2.57762836E-01  8.02419274E-01  1.00000000E+00
  1.00000000E+00  1.00000000E+00  1.00000000E+00  1.00000000E+00  2.54948632E-02
  1.90362766E-01  8.52162022E-01  1.00000000E+00  1.00000000E+00  1.00000000E+00
  1.00000000E+00  1.00000000E+00  2.54948632E-02  1.90362766E-01  8.52162022E-01
  1.00000000E+00  1.00000000E+00  1.00000000E+00  1.00000000E+00  1.00000000E+00
Coordinates of each shell                  R   N=          66
  0.00000000E+00  0.00000000E+00  2.21664874E-01  0.00000000E+00  0.00000000E+00
  2.21664874E-01  0.00000000E+00  0.00000000E+00  2.21664874E-01  0.00000000E+00
  0.00000000E+00  2.21664874E-01  0.00000000E+00  0.00000000E+00  2.21664874E-01
  0.00000000E+00  0.00000000E+00  2.21664874E-01  0.00000000E+00  0.00000000E+00
  2.21664874E-01  0.00000000E+00  0.00000000E+00  2.21664874E-01  0.00000000E+00
  0.00000000E+00  2.21664874E-01  0.00000000E+00  0.00000000E+00  2.21664874E-01
 -1.43090062E+00 -8.76173933E-17 -8.86659498E-01 -1.43090062E+00 -8.76173933E-17
 -8.86659498E-01 -1.43090062E+00 -8.76173933E-17 -8.86659498E-01 -1.43090062E+00
 -8.76173933E-17 -8.86659498E-01 -1.43090062E+00 -8.76173933E-17 -8.86659498E-01
 -1.43090062E+00 -8.76173933E-17 -8.86659498E-01  1.43090062E+00  8.76173933E-17
 -8.86659498E-01  1.43090062E+00  8.76173933E-17 -8.86659498E-01  1.43090062E+00
  8.76173933E-17 -8.86659498E-01  1.43090062E+00  8.76173933E-17 -8.86659498E-01
  1.43090062E+00  8.76173933E-17 -8.86659498E-01  1.43090062E+00  8.76173933E-17
 -8.86659498E-01
Overlap Matrix                             R   N=        1711
  1.00000000E+00  1.04712649E-01  1.00000000E+00  5.29767968E-01  7.55463327E-01
  1.00000000E+00  1.47812726E-01  8.29541310E-01  5.23316844E-01  1.00000000E+00
  0.00000000E+00  0.00000000E+00  0.00000000E+00  0.00000000E+00  1.00000000E+00
  0.00000000E+00  0.00000000E+00  0.00000000E+00  0.00000000E+00  0.00000000E+00
  1.00000000E+00  3.77772391E-17  6.32058720E-17  0.00000000E+00  3.10334150E-17
  0.00000000E+00  0.00000000E+00  1.00000000E+00  0.00000000E+00  0.00000000E+00
  0.00000000E+00  0.00000000E+00  6.00183926E-01  0.00000000E+00  0.00000000E+00
  1.00000000E+00  0.00000000E+00  0.00000000E+00  0.00000000E+00  0.00000000E+00
  0.00000000E+00  6.00183926E-01  0.00000000E+00  0.00000000E+00  1.00000000E+00
  3.86983871E-18 -7.22959779E-19 -4.05977137E-17  0.00000000E+00  0.00000000E+00
  0.00000000E+00  6.00183926E-01  0.00000000E+00  0.00000000E+00  1.00000000E+00
  0.00000000E+00  0.00000000E+00  0.00000000E+00  0.00000000E+00  2.04173581E-01
  0.00000000E+00  0.00000000E+00  6.50413929E-01  0.00000000E+00  0.00000000E+00
  1.00000000E+00  0.00000000E+00  0.00000000E+00  0.00000000E+00  0.00000000E+00
  0.00000000E+00  2.04173581E-01  0.00000000E+00  0.00000000E+00  6.50413929E-01
  0.00000000E+00  0.00000000E+00  1.00000000E+00 -1.97650823E-18  9.41165832E-19
  0.00000000E+00  0.00000000E+00  0.00000000E+00  0.00000000E+00  2.04173581E-01
  0.00000000E+00  0.00000000E+00  6.50413929E-01  0.00000000E+00  0.00000000E+00
  1.00000000E+00  0.00000000E+00  0.00000000E+00  0.00000000E+00  0.00000000E+00
  0.00000000E+00  0.00000000E+00  9.52262932E-17  0.00000000E+00  0.00000000E+00
  0.00000000E+00  0.00000000E+00  0.00000000E+00  0.00000000E+00  1.00000000E+00
  0.00000000E+00  0.00000000E+00  0.00000000E+00  0.00000000E+00  8.24683890E-17
  0.00000000E+00  0.00000000E+00  0.00000000E+00  0.00000000E+00  0.00000000E+00
  0.00000000E+00  0.00000000E+00  0.00000000E+00  0.00000000E+00  1.00000000E+00
  0.00000000E+00  0.00000000E+00  0.00000000E+00  0.00000000E+00  0.00000000E+00
  8.24683890E-17  0.00000000E+00  0.00000000E+00  0.00000000E+00  0.00000000E+00
  0.00000000E+00  0.00000000E+00  0.00000000E+00  0.00000000E+00  0.00000000E+00
  1.00000000E+00 -5.86034739E-18  5.49634588E-17 -3.16862849E-17  6.95105896E-18
  0.00000000E+00  0.00000000E+00 -2.51612619E-33  0.00000000E+00  0.00000000E+00
  0.00000000E+00  0.00000000E+00  0.00000000E+00  0.00000000E+00  1.73531962E-17
  0.00000000E+00  0.00000000E+00  1.00000000E+00  0.00000000E+00  0.00000000E+00
  0.00000000E+00  0.00000000E+00  0.00000000E+00  0.00000000E+00  0.00000000E+00
  0.00000000E+00  0.00000000E+00  0.00000000E+00  0.00000000E+00  0.00000000E+00
  0.00000000E+00  0.00000000E+00  0.00000000E+00  0.00000000E+00  0.00000000E+00
  1.00000000E+00  0.00000000E+00  0.00000000E+00  0.00000000E+00  0.00000000E+00
  0.00000000E+00  0.00000000E+00 -2.82718115E-18  0.00000000E+00  0.00000000E+00
  0.00000000E+00  0.00000000E+00  0.00000000E+00  3.58251815E-17  5.11638218E-01
  0.00000000E+00  0.00000000E+00  9.57659849E-18  0.00000000E+00  1.00000000E+00
  0.00000000E+00  0.00000000E+00  0.00000000E+00  0.00000000E+00 -2.44841069E-18
  0.00000000E+00  0.00000000E+00  0.00000000E+00  0.00000000E+00  0.00000000E+00
  3.10255173E-17  0.00000000E+00  0.00000000E+00  0.00000000E+00  5.11638218E-01
  0.00000000E+00  0.00000000E+00  0.00000000E+00  0.00000000E+00  1.00000000E+00
  0.00000000E+00  0.00000000E+00  0.00000000E+00  0.00000000E+00  0.00000000E+00
 -2.44841069E-18  0.00000000E+00  0.00000000E+00  0.00000000E+00  0.00000000E+00
  0.00000000E+00  3.10255173E-17  0.00000000E+00  0.00000000E+00  0.00000000E+00
  5.11638218E-01  0.00000000E+00  0.00000000E+00  0.00000000E+00  0.00000000E+00
  1.00000000E+00  4.27203385E-19  4.13664842E-18 -7.76433398E-18 -3.49841677E-17
  0.00000000E+00  0.00000000E+00  6.89554646E-35  0.00000000E+00  0.00000000E+00
  0.00000000E+00  0.00000000E+00  0.00000000E+00 -1.14273825E-33 -9.57659849E-18
  0.00000000E+00  0.00000000E+00  5.11638218E-01  0.00000000E+00  1.73531962E-17
  0.00000000E+00  0.00000000E+00  1.00000000E+00  0.00000000E+00  0.00000000E+00
  0.00000000E+00  0.00000000E+00  0.00000000E+00  0.00000000E+00  0.00000000E+00
  0.00000000E+00  0.00000000E+00  0.00000000E+00  0.00000000E+00  0.00000000E+00
  0.00000000E+00  0.00000000E+00  0.00000000E+00  0.00000000E+00  0.00000000E+00
  5.11638218E-01  0.00000000E+00  0.00000000E+00  0.00000000E+00  0.00000000E+00
  1.00000000E+00 -3.85185989E-33  1.54074396E-33  0.00000000E+00 -1.23259516E-32
  0.00000000E+00  0.00000000E+00 -1.11022302E-16  0.00000000E+00  0.00000000E+00
 -2.22044605E-16  0.00000000E+00  0.00000000E+00  0.00000000E+00 -8.04512077E-17
  0.00000000E+00  0.00000000E+00  2.53335636E-33  0.00000000E+00  0.00000000E+00
  0.00000000E+00  0.00000000E+00  0.00000000E+00  0.00000000E+00  1.00000000E+00
  0.00000000E+00  0.00000000E+00  0.00000000E+00  0.00000000E+00  9.48394126E-17
  0.00000000E+00  0.00000000E+00  1.12354909E-16  0.00000000E+00  0.00000000E+00
  3.33931168E-17  0.00000000E+00  0.00000000E+00  0.00000000E+00 -7.58501260E-17
  0.00000000E+00  0.00000000E+00  0.00000000E+00  0.00000000E+00  0.00000000E+00
  0.00000000E+00  0.00000000E+00  0.00000000E+00  0.00000000E+00  1.00000000E+00
  0.00000000E+00  0.00000000E+00  0.00000000E+00  0.00000000E+00  0.00000000E+00
  9.48394126E-17  0.00000000E+00  0.00000000E+00  1.12354909E-16  0.00000000E+00
  0.00000000E+00 -2.21180345E-17  0.00000000E+00  0.00000000E+00  0.00000000E+00
 -7.58501260E-17  0.00000000E+00  0.00000000E+00  0.00000000E+00  0.00000000E+00
  0.00000000E+00  0.00000000E+00  0.00000000E+00  0.00000000E+00  0.00000000E+00
  1.00000000E+00  1.29650199E-34 -7.06364537E-35  0.00000000E+00 -2.36861216E-33
  0.00000000E+00  0.00000000E+00 -2.45618501E-17  0.00000000E+00  0.00000000E+00
  3.64630479E-17  0.00000000E+00  0.00000000E+00 -2.49032210E-17 -6.45352296E-34
  0.00000000E+00  0.00000000E+00 -5.99647897E-17  0.00000000E+00  0.00000000E+00
  0.00000000E+00  0.00000000E+00  0.00000000E+00  0.00000000E+00 -8.16960070E-17
  0.00000000E+00  0.00000000E+00  1.00000000E+00  0.00000000E+00  0.00000000E+00
  0.00000000E+00  0.00000000E+00  0.00000000E+00  0.00000000E+00  0.00000000E+00
  0.00000000E+00  0.00000000E+00  0.00000000E+00  0.00000000E+00  0.00000000E+00
  0.00000000E+00  0.00000000E+00  0.00000000E+00  0.00000000E+00  0.00000000E+00
 -5.99647897E-17  0.00000000E+00  0.00000000E+00  0.00000000E+00  0.00000000E+00
  0.00000000E+00  0.00000000E+00  0.00000000E+00  0.00000000E+00  0.00000000E+00
  1.00000000E+00  0.00000000E+00  0.00000000E+00  0.00000000E+00  0.00000000E+00
 -5.74744388E-17  0.00000000E+00  0.00000000E+00 -3.21227552E-17  0.00000000E+00
  0.00000000E+00  8.54969905E-17  0.00000000E+00  0.00000000E+00  0.00000000E+00
 -5.00159791E-33  0.00000000E+00  0.00000000E+00  0.00000000E+00  0.00000000E+00
  0.00000000E+00  0.00000000E+00  0.00000000E+00  0.00000000E+00  0.00000000E+00
 -1.26096810E-16  0.00000000E+00  0.00000000E+00  0.00000000E+00  1.00000000E+00
  0.00000000E+00  0.00000000E+00  0.00000000E+00  0.00000000E+00  0.00000000E+00
  4.30575241E-17  0.00000000E+00  0.00000000E+00  1.98058757E-18  0.00000000E+00
  0.00000000E+00 -9.77121991E-17  0.00000000E+00  0.00000000E+00  0.00000000E+00
  6.12928475E-33  0.00000000E+00  0.00000000E+00  0.00000000E+00  0.00000000E+00
  0.00000000E+00  0.00000000E+00  0.00000000E+00  0.00000000E+00  0.00000000E+00
  2.23054206E-16  0.00000000E+00  0.00000000E+00  0.00000000E+00  1.00000000E+00
  1.24160538E-02  2.22093222E-01  8.62073827E-02  3.15736906E-01 -8.09424117E-02
 -4.95629327E-18 -6.26950931E-02 -3.15223085E-01 -1.93018471E-17 -2.44160512E-01
 -3.57103660E-01 -2.18662927E-17 -2.76599705E-01  8.05956502E-03  1.08180319E-01
  6.62413404E-18  6.98330240E-02  8.55207894E-18  2.95419212E-02  3.96529396E-01
  2.42804228E-17  2.55969359E-01  3.13472057E-17  8.04589304E-02 -9.89307429E-02
 -6.05776088E-18 -1.73110374E-01 -2.11999066E-17 -9.12410048E-02 -1.67607007E-17
  1.00000000E+00  6.57729950E-02  4.48046015E-01  2.52156666E-01  6.25509263E-01
 -9.92113891E-02 -6.07494551E-18 -7.68455886E-02 -3.24817870E-01 -1.98893582E-17
 -2.51592288E-01 -5.06439834E-01 -3.10104961E-17 -3.92270157E-01  3.48731898E-03
  4.68088883E-02  2.86621776E-18  3.02162747E-02  3.70042641E-18  1.55052259E-02
  2.08120448E-01  1.27437020E-17  1.34346806E-01  1.64527386E-17  1.32779397E-02
 -1.63262976E-02 -9.99697405E-19 -2.85679801E-02 -3.49856853E-18 -1.50572790E-02
 -2.76597728E-18  7.06285045E-01  1.00000000E+00  5.76385636E-02  4.22666548E-01
  2.25135196E-01  6.94642587E-01 -3.01794355E-02 -1.84795745E-18 -2.33759098E-02
 -1.22100278E-01 -7.47648575E-18 -9.45745024E-02 -3.09813666E-01 -1.89706157E-17
 -2.39970569E-01  3.66706612E-04  4.92215622E-03  3.01395143E-19  3.17737143E-03
  3.89115775E-19  2.45757017E-03  3.29869817E-02  2.01987008E-18  2.12938981E-02
  2.60775042E-18  5.62285956E-04 -6.91375924E-04 -4.23345656E-20 -1.20977910E-03
 -1.48155210E-19 -6.37636312E-04 -1.17131890E-19  3.73527845E-01  7.88878095E-01
  1.00000000E+00  2.54635008E-02  2.30909546E-01  1.44775846E-01  1.48981481E-01
 -1.19791979E-01 -1.01227371E-17 -1.28048505E-01 -1.73185316E-01 -2.18568904E-17
 -2.76480769E-01  4.91257375E-02 -9.55861821E-18 -1.20912631E-01  6.80390582E-02
  1.73605147E-01  1.47457168E-17  6.86802116E-02  1.37241685E-17  2.09643984E-01
  1.93144608E-01  2.64090315E-17 -2.90505300E-02  1.52688396E-17 -2.19254686E-02
 -2.08345473E-01 -1.65875030E-17 -9.87382953E-02 -2.54956046E-17  5.64533446E-03
 -9.55992972E-18  3.28820930E-18  3.63892821E-16  0.00000000E+00  1.00000000E+00
  1.55918974E-18  1.41391318E-17  8.86496379E-18  9.12248470E-18 -1.01227371E-17
  4.55248640E-02 -7.84070961E-18 -2.18568904E-17  1.83764792E-01 -1.69295645E-17
 -9.55861821E-18  2.05229819E-01 -7.40376331E-18  4.16619074E-18  1.47457168E-17
 -6.72106833E-02  1.48319869E-17 -8.67722581E-02  1.28369917E-17  2.64090315E-17
 -2.38147608E-01  3.58741749E-17 -3.07460134E-01 -1.34254774E-18 -1.65875030E-17
  6.25490084E-02 -3.28532786E-17  2.18898230E-01 -3.14452055E-17  1.73061504E-01
 -2.45610654E-32  4.04002188E-32  0.00000000E+00  0.00000000E+00  1.00000000E+00
  1.97231157E-02  1.78854264E-01  1.12138185E-01  1.15395719E-01 -1.28048505E-01
 -7.84070961E-18 -5.36569221E-02 -2.76480769E-01 -1.69295645E-17 -3.03873091E-02
 -1.20912631E-01 -7.40376331E-18  1.11575226E-01 -6.37117007E-02  9.97550593E-02
  6.10823570E-18  1.20407915E-01  1.47457168E-17 -2.50101034E-01  2.66033688E-02
  1.62898652E-18  2.15646108E-01  2.64090315E-17  1.36230472E-01  1.36283329E-01
  8.34494711E-18 -1.04725750E-01 -1.28252055E-17 -1.29674569E-01 -2.38208318E-17
  1.64410465E-18  1.81946410E-16  9.41227681E-17  0.00000000E+00  0.00000000E+00
  1.00000000E+00  1.05029502E-01  4.76925314E-01  3.48701881E-01  4.00216802E-01
 -4.52540672E-02 -1.02652324E-17 -1.29851013E-01 -1.18196388E-02 -2.46553955E-17
 -3.11880721E-01  2.48369562E-01 -1.97375171E-17 -2.49671560E-01  5.68727399E-02
  2.42256742E-02  5.59607147E-18 -2.77184481E-02  1.91513466E-18  2.28715372E-01
 -2.21518179E-03  1.69580048E-17 -1.81634785E-01 -1.75118818E-19 -4.48475719E-02
 -4.44096463E-02 -4.33972340E-18  3.47584483E-02 -1.41417311E-18  4.27265328E-02
  3.36534393E-18  0.00000000E+00  0.00000000E+00 -2.03005880E-16  6.14923564E-01
  0.00000000E+00  0.00000000E+00  1.00000000E+00  6.43120218E-18  2.92032530E-17
  2.13518321E-17  2.45062113E-17 -1.02652324E-17  1.22389900E-01 -7.95108137E-18
 -2.46553955E-17  3.90833527E-01 -1.90971863E-17 -1.97375171E-17  5.70707678E-01
 -1.52879738E-17  3.48245095E-18  5.59607147E-18 -6.71651085E-02  8.92206565E-18
 -8.67134189E-02  1.40047774E-17  1.69580048E-17 -2.79160417E-01  3.30155311E-17
 -3.60409663E-01 -2.74612177E-18 -4.33972340E-18  2.64634153E-02 -9.21336957E-18
  9.26120960E-02 -1.08339329E-17  7.32193613E-02 -1.11172920E-33  1.52680509E-32
  0.00000000E+00  0.00000000E+00  6.14923564E-01  0.00000000E+00  0.00000000E+00
  1.00000000E+00  8.13520906E-02  3.69409267E-01  2.70091988E-01  3.09993600E-01
 -1.29851013E-01 -7.95108137E-18  2.18119565E-02 -3.11880721E-01 -1.90971863E-17
  1.49261891E-01 -2.49671560E-01 -1.52879738E-17  3.77321030E-01 -7.22817930E-02
 -1.59253919E-02 -9.75149008E-19  4.56953913E-02  5.59607147E-18 -3.06365290E-01
 -1.45897803E-01 -8.93366390E-18  1.38472617E-01  1.69580048E-17  3.00845414E-02
  9.15368460E-02  5.60501527E-18  1.49719947E-02  1.83354054E-18 -2.36186528E-02
 -4.33867613E-18  1.90284824E-16  1.37522377E-16  0.00000000E+00  0.00000000E+00
  0.00000000E+00  6.14923564E-01  0.00000000E+00  2.12384298E-48  1.00000000E+00
  7.14665942E-03  1.82577191E-02  2.13816474E-02  6.10386516E-03 -1.03414224E-01
 -6.33229491E-18  1.04390180E-01 -1.89883011E-01 -1.16269811E-17  2.28550454E-01
 -8.29942844E-02 -5.08193424E-18  1.15475016E-01 -1.67013703E-01 -6.67354482E-02
 -4.08636765E-18  1.40750249E-01  1.72369341E-17 -2.05879938E-01 -1.48552457E-01
 -9.09621453E-18  2.48202290E-01  3.03960141E-17  1.12594417E-02  2.18226889E-01
  1.33625430E-17 -2.64347680E-02 -3.23732541E-18 -1.82067337E-01 -3.34452271E-17
  0.00000000E+00  0.00000000E+00  0.00000000E+00  0.00000000E+00  0.00000000E+00
  0.00000000E+00  1.94978107E-16  1.08234592E-32 -1.94978107E-16  1.00000000E+00
  9.59267517E-02  2.45066063E-01  2.86997304E-01  8.19297414E-02 -2.15875400E-01
 -1.97407802E-17 -1.12195497E-01 -1.62079726E-01 -2.32038786E-17 -1.35320191E-02
  2.81490845E-02 -4.63131188E-18  7.54061667E-02 -6.67354482E-02  1.10204094E-01
  1.01714176E-17  7.98381813E-02  1.98448908E-17 -1.48552457E-01 -2.46619952E-03
 -3.86854449E-19 -5.53495168E-02  1.20662817E-17  1.28832961E-01  4.08701655E-02
  8.98084812E-18 -2.29304455E-02 -8.57104634E-18  3.85503631E-02 -6.73037881E-18
  8.86781830E-32  0.00000000E+00  0.00000000E+00  0.00000000E+00  0.00000000E+00
  0.00000000E+00 -1.68855994E-16 -1.33559569E-63 -3.37711988E-16  0.00000000E+00
  1.00000000E+00  5.87381947E-18  1.50059685E-17  1.75735165E-17  5.01674978E-18
 -1.97407802E-17  1.06516006E-01 -6.86999280E-18 -2.32038786E-17  2.16868369E-01
 -8.28597192E-19 -4.63131188E-18  1.03784147E-01  4.61729603E-18 -4.08636765E-18
  1.01714176E-17 -5.59077607E-02  2.50237456E-17 -1.64415299E-01 -9.09621453E-18
 -3.86854449E-19  3.85161308E-03  3.43001047E-17 -3.07756368E-01  7.88874369E-18
  8.98084812E-18 -1.05798215E-01 -1.29298382E-17  9.41149182E-02 -3.90753680E-17
  2.25566517E-01  0.00000000E+00  0.00000000E+00  0.00000000E+00  0.00000000E+00
  0.00000000E+00  0.00000000E+00 -1.33559569E-63 -1.68855994E-16 -1.87467812E-32
  0.00000000E+00  0.00000000E+00  1.00000000E+00  6.19230489E-02  1.58196098E-01
  1.85263733E-01  5.28876387E-02 -7.05941462E-02 -2.11636617E-17 -1.61195703E-01
  3.53674003E-02 -3.21229635E-17 -1.89474047E-01  8.51661066E-02 -1.11941687E-17
 -3.78175314E-02  1.40750249E-01  7.98381813E-02  2.50237456E-17  1.68458568E-02
  1.93091966E-17  2.48202290E-01 -5.53495168E-02  3.43001047E-17  7.83500218E-03
  1.99537526E-17 -1.78864169E-01 -1.15567233E-01 -2.73706529E-17 -8.79106123E-03
 -2.80501767E-17 -6.36708633E-02 -1.86830772E-17 -2.14806471E-17  3.34106111E-17
 -2.71169641E-17  0.00000000E+00  0.00000000E+00  0.00000000E+00 -3.37711988E-16
  1.87467812E-32  2.17426487E-33  1.73531962E-17  0.00000000E+00  0.00000000E+00
  1.00000000E+00  7.58338636E-18  1.93734345E-17  2.26882637E-17  6.47686774E-18
 -1.70657980E-17  1.37517339E-01 -1.97407802E-17 -1.28130387E-17  2.79987603E-01
 -2.32038786E-17  2.22529565E-18  1.33990377E-01 -4.63131188E-18  1.72369341E-17
  1.98448908E-17 -1.64415299E-01  1.93091966E-17 -1.40825699E-01  3.03960141E-17
  1.20662817E-17 -3.07756368E-01  1.99537526E-17 -1.55099753E-01 -2.19045433E-17
 -2.43000046E-17  1.65714725E-01 -2.80501767E-17  2.20256014E-01 -1.82778259E-17
  5.70526077E-02  0.00000000E+00  9.04838667E-48  4.95628469E-48  0.00000000E+00
  0.00000000E+00  0.00000000E+00 -1.87467812E-32 -3.37711988E-16 -1.33559569E-63
  0.00000000E+00  0.00000000E+00  0.00000000E+00  0.00000000E+00  1.00000000E+00
  1.24160538E-02  2.22093222E-01  8.62073827E-02  3.15736906E-01  8.09424117E-02
  4.95629327E-18 -6.26950931E-02  3.15223085E-01  1.93018471E-17 -2.44160512E-01
  3.57103660E-01  2.18662927E-17 -2.76599705E-01  8.05956502E-03 -1.08180319E-01
 -6.62413404E-18  6.98330240E-02  8.55207894E-18  2.95419212E-02 -3.96529396E-01
 -2.42804228E-17  2.55969359E-01  3.13472057E-17  8.04589304E-02  9.89307429E-02
  6.05776088E-18 -1.73110374E-01 -2.11999066E-17  9.12410048E-02  1.67607007E-17
  6.40588779E-03  8.51822189E-02  1.71812896E-01  1.43380358E-02  8.77951480E-19
  2.57672283E-23  1.82398788E-01  1.11687046E-17  1.75987327E-17 -2.58096469E-02
  6.45981440E-18  3.95549551E-34  4.47036198E-02  5.47461449E-18  1.00000000E+00
  6.57729950E-02  4.48046015E-01  2.52156666E-01  6.25509263E-01  9.92113891E-02
  6.07494551E-18 -7.68455886E-02  3.24817870E-01  1.98893582E-17 -2.51592288E-01
  5.06439834E-01  3.10104961E-17 -3.92270157E-01  3.48731898E-03 -4.68088883E-02
 -2.86621776E-18  3.02162747E-02  3.70042641E-18  1.55052259E-02 -2.08120448E-01
 -1.27437020E-17  1.34346806E-01  1.64527386E-17  1.32779397E-02  1.63262976E-02
  9.99697405E-19 -2.85679801E-02 -3.49856853E-18  1.50572790E-02  2.76597728E-18
  8.51822189E-02  2.63385709E-01  4.16171912E-01  1.01027495E-01  6.18614994E-18
  2.08452787E-17  3.79385029E-01  2.32306331E-17  3.22460420E-17 -5.64408946E-02
  0.00000000E+00  0.00000000E+00  9.77584971E-02  1.19719631E-17  7.06285045E-01
  1.00000000E+00  5.76385636E-02  4.22666548E-01  2.25135196E-01  6.94642587E-01
  3.01794355E-02  1.84795745E-18 -2.33759098E-02  1.22100278E-01  7.47648575E-18
 -9.45745024E-02  3.09813666E-01  1.89706157E-17 -2.39970569E-01  3.66706612E-04
 -4.92215622E-03 -3.01395143E-19  3.17737143E-03  3.89115775E-19  2.45757017E-03
 -3.29869817E-02 -2.01987008E-18  2.12938981E-02  2.60775042E-18  5.62285956E-04
  6.91375924E-04  4.23345656E-20 -1.20977910E-03 -1.48155210E-19  6.37636312E-04
  1.17131890E-19  1.71812896E-01  4.16171912E-01  6.56684433E-01  7.53644304E-02
  4.61474042E-18  4.29791076E-17  2.81596694E-01  1.72428245E-17  0.00000000E+00
 -1.55989624E-02  0.00000000E+00  0.00000000E+00  2.70181954E-02  3.30877465E-18
  3.73527845E-01  7.88878095E-01  1.00000000E+00 -2.54635008E-02 -2.30909546E-01
 -1.44775846E-01 -1.48981481E-01 -1.19791979E-01 -1.01227371E-17  1.28048505E-01
 -1.73185316E-01 -2.18568904E-17  2.76480769E-01  4.91257375E-02 -9.55861821E-18
  1.20912631E-01 -6.80390582E-02  1.73605147E-01  1.47457168E-17 -6.86802116E-02
 -1.37241685E-17 -2.09643984E-01  1.93144608E-01  2.64090315E-17  2.90505300E-02
 -1.52688396E-17  2.19254686E-02 -2.08345473E-01 -1.65875030E-17  9.87382953E-02
  2.54956046E-17  5.64533446E-03 -9.55992972E-18 -1.43380358E-02 -1.01027495E-01
 -7.53644304E-02 -3.31067879E-02 -2.21984772E-18  0.00000000E+00 -2.02831906E-01
 -1.55391761E-17  0.00000000E+00  5.31841011E-02  0.00000000E+00  0.00000000E+00
 -9.21175652E-02 -1.27116077E-17 -3.28820930E-18 -3.63892821E-16  0.00000000E+00
  1.00000000E+00 -1.55918974E-18 -1.41391318E-17 -8.86496379E-18 -9.12248470E-18
 -1.01227371E-17  4.55248640E-02  7.84070961E-18 -2.18568904E-17  1.83764792E-01
  1.69295645E-17 -9.55861821E-18  2.05229819E-01  7.40376331E-18 -4.16619074E-18
  1.47457168E-17 -6.72106833E-02 -1.48319869E-17  8.67722581E-02 -1.28369917E-17
  2.64090315E-17 -2.38147608E-01 -3.58741749E-17  3.07460134E-01  1.34254774E-18
 -1.65875030E-17  6.25490084E-02  3.28532786E-17 -2.18898230E-01 -3.14452055E-17
  1.73061504E-01 -8.77951480E-19 -6.18614994E-18 -4.61474042E-18 -2.21984772E-18
  3.14607661E-03  0.00000000E+00 -1.55391761E-17  5.09420984E-02  0.00000000E+00
  3.25658696E-18  0.00000000E+00  0.00000000E+00 -8.50149320E-18  2.33611775E-02
  2.45610654E-32 -4.04002188E-32  0.00000000E+00  0.00000000E+00  1.00000000E+00
  1.97231157E-02  1.78854264E-01  1.12138185E-01  1.15395719E-01  1.28048505E-01
  7.84070961E-18 -5.36569221E-02  2.76480769E-01  1.69295645E-17 -3.03873091E-02
  1.20912631E-01  7.40376331E-18  1.11575226E-01 -6.37117007E-02 -9.97550593E-02
 -6.10823570E-18  1.20407915E-01  1.47457168E-17 -2.50101034E-01 -2.66033688E-02
 -1.62898652E-18  2.15646108E-01  2.64090315E-17  1.36230472E-01 -1.36283329E-01
 -8.34494711E-18 -1.04725750E-01 -1.28252055E-17  1.29674569E-01  2.38208318E-17
  2.57672283E-23  2.08452787E-17  4.29791076E-17  0.00000000E+00  0.00000000E+00
  3.14607661E-03  0.00000000E+00  0.00000000E+00  5.09420984E-02  0.00000000E+00
  2.33611775E-02  1.43045956E-18  0.00000000E+00  0.00000000E+00  1.64410465E-18
  1.81946410E-16  9.41227681E-17  0.00000000E+00  0.00000000E+00  1.00000000E+00
 -1.05029502E-01 -4.76925314E-01 -3.48701881E-01 -4.00216802E-01 -4.52540672E-02
 -1.02652324E-17  1.29851013E-01 -1.18196388E-02 -2.46553955E-17  3.11880721E-01
  2.48369562E-01 -1.97375171E-17  2.49671560E-01 -5.68727399E-02  2.42256742E-02
  5.59607147E-18  2.77184481E-02 -1.91513466E-18 -2.28715372E-01 -2.21518179E-03
  1.69580048E-17  1.81634785E-01  1.75118818E-19  4.48475719E-02 -4.44096463E-02
 -4.33972340E-18 -3.47584483E-02  1.41417311E-18  4.27265328E-02  3.36534393E-18
 -1.82398788E-01 -3.79385029E-01 -2.81596694E-01 -2.02831906E-01 -1.55391761E-17
  0.00000000E+00 -4.44600097E-01 -3.97252169E-17 -5.03368666E-17  8.74359636E-02
  6.02816544E-17  4.70278280E-33 -1.51443531E-01 -2.55481311E-17  0.00000000E+00
  0.00000000E+00  2.03005880E-16  6.14923564E-01  0.00000000E+00  0.00000000E+00
  1.00000000E+00 -6.43120218E-18 -2.92032530E-17 -2.13518321E-17 -2.45062113E-17
 -1.02652324E-17  1.22389900E-01  7.95108137E-18 -2.46553955E-17  3.90833527E-01
  1.90971863E-17 -1.97375171E-17  5.70707678E-01  1.52879738E-17 -3.48245095E-18
  5.59607147E-18 -6.71651085E-02 -8.92206565E-18  8.67134189E-02 -1.40047774E-17
  1.69580048E-17 -2.79160417E-01 -3.30155311E-17  3.60409663E-01  2.74612177E-18
 -4.33972340E-18  2.64634153E-02  9.21336957E-18 -9.26120960E-02 -1.08339329E-17
  7.32193613E-02 -1.11687046E-17 -2.32306331E-17 -1.72428245E-17 -1.55391761E-17
  5.09420984E-02  0.00000000E+00 -3.97252169E-17  2.04161928E-01 -3.08224413E-33
  5.35390865E-18  4.70278280E-33 -1.65206172E-17 -2.32765367E-17  1.14345581E-01
  1.11172920E-33 -1.52680509E-32  0.00000000E+00  0.00000000E+00  6.14923564E-01
  0.00000000E+00  0.00000000E+00  1.00000000E+00  8.13520906E-02  3.69409267E-01
  2.70091988E-01  3.09993600E-01  1.29851013E-01  7.95108137E-18  2.18119565E-02
  3.11880721E-01  1.90971863E-17  1.49261891E-01  2.49671560E-01  1.52879738E-17
  3.77321030E-01 -7.22817930E-02  1.59253919E-02  9.75149008E-19  4.56953913E-02
  5.59607147E-18 -3.06365290E-01  1.45897803E-01  8.93366390E-18  1.38472617E-01
  1.69580048E-17  3.00845414E-02 -9.15368460E-02 -5.60501527E-18  1.49719947E-02
  1.83354054E-18  2.36186528E-02  4.33867613E-18  1.75987327E-17  3.22460420E-17
  0.00000000E+00  0.00000000E+00  0.00000000E+00  5.09420984E-02  5.03368666E-17
  3.08224413E-33  2.04161928E-01 -1.09379440E-17  1.14345581E-01  7.00164747E-18
 -1.40961596E-17 -1.72628167E-33  1.90284824E-16  1.37522377E-16  0.00000000E+00
  0.00000000E+00  0.00000000E+00  6.14923564E-01  0.00000000E+00 -2.12384298E-48
  1.00000000E+00  7.14665942E-03  1.82577191E-02  2.13816474E-02  6.10386516E-03
  1.03414224E-01  6.33229491E-18  1.04390180E-01  1.89883011E-01  1.16269811E-17
  2.28550454E-01  8.29942844E-02  5.08193424E-18  1.15475016E-01 -1.67013703E-01
  6.67354482E-02  4.08636765E-18  1.40750249E-01  1.72369341E-17 -2.05879938E-01
  1.48552457E-01  9.09621453E-18  2.48202290E-01  3.03960141E-17  1.12594417E-02
 -2.18226889E-01 -1.33625430E-17 -2.64347680E-02 -3.23732541E-18  1.82067337E-01
  3.34452271E-17 -2.58096469E-02 -5.64408946E-02 -1.55989624E-02 -5.31841011E-02
 -3.25658696E-18  0.00000000E+00 -8.74359636E-02 -5.35390865E-18 -1.09379440E-17
  5.74957025E-02  0.00000000E+00  0.00000000E+00 -7.67413087E-02 -9.39809981E-18
  0.00000000E+00  0.00000000E+00  0.00000000E+00  0.00000000E+00  0.00000000E+00
  0.00000000E+00 -1.94978107E-16 -1.08234592E-32 -1.94978107E-16  1.00000000E+00
 -9.59267517E-02 -2.45066063E-01 -2.86997304E-01 -8.19297414E-02 -2.15875400E-01
 -1.97407802E-17  1.12195497E-01 -1.62079726E-01 -2.32038786E-17  1.35320191E-02
  2.81490845E-02 -4.63131188E-18 -7.54061667E-02  6.67354482E-02  1.10204094E-01
  1.01714176E-17 -7.98381813E-02 -1.98448908E-17  1.48552457E-01 -2.46619952E-03
 -3.86854449E-19  5.53495168E-02 -1.20662817E-17 -1.28832961E-01  4.08701655E-02
  8.98084812E-18  2.29304455E-02  8.57104634E-18  3.85503631E-02 -6.73037881E-18
 -6.45981440E-18  0.00000000E+00  0.00000000E+00  0.00000000E+00  0.00000000E+00
 -2.33611775E-02  6.02816544E-17  4.70278280E-33 -1.14345581E-01  0.00000000E+00
 -1.00985294E-01 -6.99116453E-18  0.00000000E+00  0.00000000E+00 -8.86781830E-32
  0.00000000E+00  0.00000000E+00  0.00000000E+00  0.00000000E+00  0.00000000E+00
 -1.68855994E-16 -1.33559569E-63  3.37711988E-16  0.00000000E+00  1.00000000E+00
 -5.87381947E-18 -1.50059685E-17 -1.75735165E-17 -5.01674978E-18 -1.97407802E-17
  1.06516006E-01  6.86999280E-18 -2.32038786E-17  2.16868369E-01  8.28597192E-19
 -4.63131188E-18  1.03784147E-01 -4.61729603E-18  4.08636765E-18  1.01714176E-17