
Running Job 1 of 1 h2o_ccpvdz_sph.q
qchem h2o_ccpvdz_sph.q_329769.0 /scratch/jgrebol/PROVA/QCHEM/ORDER/QCHEM/qc_3643904/qchem329769/ 0
/scicomp/CentOS/7.4.1708/Skylake/software/QCHEM/6.0.1/exe/qcprog.exe_s h2o_ccpvdz_sph.q_329769.0 /scratch/jgrebol/PROVA/QCHEM/ORDER/QCHEM/qc_3643904/qchem329769/
                  Welcome to Q-Chem
     A Quantum Leap Into The Future Of Chemistry


 Q-Chem 6.0, Q-Chem, Inc., Pleasanton, CA (2022)

 License issued to: SRG Txomin Romero Asturiano, Donostia International Physics Center

 E. Epifanovsky,  A. T. B. Gilbert,  Xintian Feng,  Joonho Lee,  Yuezhi Mao,  
 N. Mardirossian,  P. Pokhilko,  A. White,  M. Wormit,  M. P. Coons,  
 A. L. Dempwolff,  Zhengting Gan,  D. Hait,  P. R. Horn,  L. D. Jacobson,  
 I. Kaliman,  J. Kussmann,  A. W. Lange,  Ka Un Lao,  D. S. Levine,  Jie Liu,  
 S. C. McKenzie,  A. F. Morrison,  K. Nanda,  F. Plasser,  D. R. Rehn,  
 M. L. Vidal,  Zhi-Qiang You,  Ying Zhu,  B. Alam,  B. Albrecht,  
 A. Aldossary,  E. Alguire,  J. H. Andersen,  V. Athavale,  D. Barton,  
 K. Begam,  A. Behn,  N. Bellonzi,  Y. A. Bernard,  E. J. Berquist,  
 H. Burton,  A. Carreras,  K. Carter-Fenk,  Romit Chakraborty,  
 Chandrima Chakravarty,  Junhan Chen,  A. D. Chien,  K. D. Closser,  
 V. Cofer-Shabica,  L. Cunha,  S. Dasgupta,  Jia Deng,  M. de Wergifosse,  
 M. Diedenhofen,  Hainam Do,  S. Ehlert,  Po-Tung Fang,  S. Fatehi,  
 Qingguo Feng,  T. Friedhoff,  B. Ganoe,  J. Gayvert,  Qinghui Ge,  
 G. Gidofalvi,  M. Goldey,  J. Gomes,  C. Gonzalez-Espinoza,  S. Gulania,  
 A. Gunina,  J. A. Gyamfi,  M. W. D. Hanson-Heine,  P. H. P. Harbach,  
 A. W. Hauser,  M. F. Herbst,  M. Hernandez Vera,  M. Hodecker,  
 Z. C. Holden,  S. Houck,  Xunkun Huang,  Kerwin Hui,  B. C. Huynh,  
 K. Ikeda,  M. Ivanov,  Hyunjun Ji,  Zuxin Jin,  Hanjie Jiang,  B. Kaduk,  
 S. Kaehler,  R. Kang,  K. Khistyaev,  Jaehoon Kim,  Yongbin Kim,  
 P. Klunzinger,  Z. Koczor-Benda,  Joong Hoon Koh,  D. Kosenkov,  
 Saikiran Kotaru,  L. Koulias,  T. Kowalczyk,  C. M. Krauter,  K. Kue,  
 A. Kunitsa,  T. Kus,  A. Landau,  K. V. Lawler,  D. Lefrancois,  S. Lehtola,  
 Rain Li,  Shaozhi Li,  Yi-Pei Li,  Jiashu Liang,  M. Liebenthal,  
 Hung-Hsuan Lin,  You-Sheng Lin,  Fenglai Liu,  Kuan-Yu Liu,  
 M. Loipersberger,  A. Luenser,  C. Malbon,  A. Manjanath,  P. Manohar,  
 E. Mansoor,  S. F. Manzer,  Shan-Ping Mao,  A. V. Marenich,  T. Markovich,  
 S. Mason,  F. Matz,  S. A. Maurer,  P. F. McLaughlin,  M. F. S. J. Menger,  
 J.-M. Mewes,  S. A. Mewes,  P. Morgante,  Mohammad Mostafanejad,  
 J. W. Mullinax,  K. J. Oosterbaan,  G. Paran,  V. Parravicini,  
 Alexander C. Paul,  Suranjan K. Paul,  F. Pavosevic,  Zheng Pei,  S. Prager,  
 E. I. Proynov,  E. Ramos,  B. Rana,  A. E. Rask,  A. Rettig,  R. M. Richard,  
 F. Rob,  E. Rossomme,  T. Scheele,  M. Scheurer,  M. Schneider,  
 P. E. Schneider,  N. Sergueev,  S. M. Sharada,  Hengyuan Shen,  
 W. Skomorowski,  D. W. Small,  C. J. Stein,  Yingli Su,  Yu-Chuan Su,  
 E. J. Sundstrom,  Zhen Tao,  J. Thirman,  Hung-Yi Tsai,  T. Tsuchimochi,  
 N. M. Tubman,  C. Utku,  S. P. Veccham,  O. Vydrov,  J. Wenzel,  
 Jonathan Wong,  J. Witte,  A. Yamada,  Chou-Hsun Yang,  Kun Yao,  
 S. Yeganeh,  S. R. Yost,  A. Zech,  F. Zeller,  Igor Ying Zhang,  
 Xing Zhang,  Yu Zhang,  D. Zuev,  A. Aspuru-Guzik,  A. T. Bell,  
 N. A. Besley,  K. B. Bravaya,  B. R. Brooks,  D. Casanova,  Jeng-Da Chai,  
 Hsing-Ta Chen,  S. Coriani,  C. J. Cramer,  A. E. DePrince, III,  
 R. A. DiStasio Jr.,  A. Dreuw,  B. D. Dunietz,  T. R. Furlani,  
 W. A. Goddard III,  S. Grimme,  S. Hammes-Schiffer,  T. Head-Gordon,  
 W. J. Hehre,  Chao-Ping Hsu,  T.-C. Jagau,  Yousung Jung,  A. Klamt,  
 Jing Kong,  D. S. Lambrecht,  Xiangyuan Li,  WanZhen Liang,  N. J. Mayhall,  
 C. W. McCurdy,  J. B. Neaton,  T. Neudecker,  C. Ochsenfeld,  
 J. A. Parkhill,  R. Peverati,  V. A. Rassolov,  Haisheng Ren,  Yihan Shao,  
 L. V. Slipchenko,  R. P. Steele,  J. E. Subotnik,  A. J. W. Thom,  
 A. Tkatchenko,  D. G. Truhlar,  T. Van Voorhis,  Fan Wang,  
 T. A. Wesolowski,  K. B. Whaley,  H. L. Woodcock III,  P. M. Zimmerman,  
 S. Faraji,  P. M. W. Gill,  M. Head-Gordon,  J. M. Herbert,  A. I. Krylov

 Contributors to earlier versions of Q-Chem not listed above: 
 R. D. Adamson,  B. Austin,  R. Baer,  J. Baker,  G. J. O. Beran,  
 K. Brandhorst,  S. T. Brown,  E. F. C. Byrd,  Arup K. Chakraborty,  
 G. K. L. Chan,  Chun-Min Chang,  Yunqing Chen,  C.-L. Cheng,  
 Siu Hung Chien,  D. M. Chipman,  D. L. Crittenden,  H. Dachsel,  
 R. J. Doerksen,  A. D. Dutoi,  R. G. Edgar,  J. Fosso-Tande,  
 L. Fusti-Molnar,  D. Ghosh,  A. Ghysels,  A. Golubeva-Zadorozhnaya,  
 J. Gonthier,  M. S. Gordon,  S. R. Gwaltney,  G. Hawkins,  J. E. Herr,  
 A. Heyden,  S. Hirata,  E. G. Hohenstein,  G. Kedziora,  F. J. Keil,  
 C. Kelley,  Jihan Kim,  R. A. King,  R. Z. Khaliullin,  P. P. Korambath,  
 W. Kurlancheek,  A. Laurent,  A. M. Lee,  M. S. Lee,  S. V. Levchenko,  
 Ching Yeh Lin,  D. Liotard,  E. Livshits,  R. C. Lochan,  I. Lotan,  
 L. A. Martinez-Martinez,  P. E. Maslen,  N. Nair,  D. P. O'Neill,  
 D. Neuhauser,  E. Neuscamman,  C. M. Oana,  R. Olivares-Amaya,  R. Olson,  
 T. M. Perrine,  B. Peters,  P. A. Pieniazek,  A. Prociuk,  Y. M. Rhee,  
 J. Ritchie,  M. A. Rohrdanz,  E. Rosta,  N. J. Russ,  H. F. Schaefer III,  
 M. W. Schmidt,  N. E. Schultz,  S. Sharma,  N. Shenvi,  C. D. Sherrill,  
 A. C. Simmonett,  A. Sodt,  T. Stein,  D. Stuck,  K. S. Thanthiriwatte,  
 V. Vanovschi,  L. Vogt,  Tao Wang,  A. Warshel,  M. A. Watson,  
 C. F. Williams,  Q. Wu,  X. Xu,  Jun Yang,  W. Zhang,  Yan Zhao

   Please cite Q-Chem as follows:
  "Software for the frontiers of quantum chemistry:
   An overview of developments in the Q-Chem 5 package"
   J. Chem. Phys. 155, 084801 (2021)
   https://doi.org/10.1063/5.0055522 (open access)

 Q-Chem 6.0.1 for Intel X86 EM64T Linux

 Parts of Q-Chem use Armadillo 9.900.5 (Nocturnal Misbehaviour).
 http://arma.sourceforge.net/

 Q-Chem begins on Tue Mar 31 15:10:45 2026  

 Host: 
0

     Scratch files written to /scratch/jgrebol/PROVA/QCHEM/ORDER/QCHEM/qc_3643904/qchem329769//
 Aug2322 |scratch|qcdevops|jenkins|workspace|build_RNUM 8725   
 Processing $rem in /scicomp/CentOS/7.4.1708/Skylake/software/QCHEM/6.0.1/config/preferences:
 Processing $rem in /dipc/jgrebol/.qchemrc:

 Checking the input file for inconsistencies... 	...done.

 Q-Chem warning in module forms1/BasisType.C, line 2853:

 You are not using the predefined 5D/6D in this basis set.


--------------------------------------------------------------
User input:
--------------------------------------------------------------
$molecule
0 1
O      0.000000    0.000000    0.117300
H      0.000000    0.757200   -0.469200
H      0.000000   -0.757200   -0.469200
$end

$rem
METHOD = HF
BASIS = cc-pVDZ
PURECART = 1
GUI = 2
PRINT_ORBITALS = TRUE
PRINT_GENERAL_BASIS = TRUE
$end
--------------------------------------------------------------
 ----------------------------------------------------------------
             Standard Nuclear Orientation (Angstroms)
    I     Atom           X                Y                Z
 ----------------------------------------------------------------
    1      O       0.0000000000     0.0000000000     0.1173000000
    2      H      -0.7572000000    -0.0000000000    -0.4692000000
    3      H       0.7572000000     0.0000000000    -0.4692000000
 ----------------------------------------------------------------
 Molecular Point Group                 C2v   NOp =  4
 Largest Abelian Subgroup              C2v   NOp =  4
 Nuclear Repulsion Energy =           9.18953376 hartrees
 There are        5 alpha and        5 beta electrons
 Requested basis set is cc-pVDZ
 Basis set in general basis input format:
-----------------------------------------------------------------------
$basis
O    0
S    7    1.000000
   1.17200000E+04    7.10000000E-04 
   1.75900000E+03    5.47087000E-03 
   4.00800000E+02    2.78370000E-02 
   1.13700000E+02    1.04858510E-01 
   3.70300000E+01    2.83260430E-01 
   1.32700000E+01    4.50493790E-01 
   5.02500000E+00    2.72494270E-01 
S    7    1.000000
   1.17200000E+04   -1.60000000E-07 
   1.75900000E+03   -3.15300000E-05 
   1.13700000E+02   -2.12216000E-03 
   3.70300000E+01   -7.19768000E-03 
   1.32700000E+01   -6.43899900E-02 
   5.02500000E+00   -5.59550300E-02 
   1.01300000E+00    5.60848120E-01 
S    1    1.000000
   3.02300000E-01    1.00000000E+00 
P    3    1.000000
   1.77000000E+01    4.30180000E-02 
   3.85400000E+00    2.28913000E-01 
   1.04600000E+00    5.08728000E-01 
P    1    1.000000
   2.75300000E-01    1.00000000E+00 
D    1    1.000000
   1.18500000E+00    1.00000000E+00 
****
H    0
S    3    1.000000
   1.30100000E+01    1.96850000E-02 
   1.96200000E+00    1.37977000E-01 
   4.44600000E-01    4.78148000E-01 
S    1    1.000000
   1.22000000E-01    1.00000000E+00 
P    1    1.000000
   7.27000000E-01    1.00000000E+00 
****
H    0
S    3    1.000000
   1.30100000E+01    1.96850000E-02 
   1.96200000E+00    1.37977000E-01 
   4.44600000E-01    4.78148000E-01 
S    1    1.000000
   1.22000000E-01    1.00000000E+00 
P    1    1.000000
   7.27000000E-01    1.00000000E+00 
****
$end
-----------------------------------------------------------------------
 There are 12 shells and 24 basis functions

 Total QAlloc Memory Limit   2048 MB
 Mega-Array Size       188 MB
 MEM_STATIC part       192 MB


                       Distance Matrix (Angstroms)
             O (  1)   H (  2)
   H (  2)  0.957776
   H (  3)  0.957776  1.514400
 
 A cutoff of  1.0D-09 yielded     78 shell pairs
 There are       322 function pairs (       352 Cartesian)
 Smallest overlap matrix eigenvalue = 3.46E-02

 Scale SEOQF with 1.000000e+00/1.000000e+00/1.000000e+00

 Standard Electronic Orientation quadrupole field applied
 Nucleus-field energy     =    -0.0000000002 hartrees
 Guess from superposition of atomic densities
 Warning:  Energy on first SCF cycle will be non-variational
 SAD guess density has 10.000000 electrons

 -----------------------------------------------------------------------
  General SCF calculation program by
  Eric Jon Sundstrom, Paul Horn, Yuezhi Mao, Dmitri Zuev, Alec White,
  David Stuck, Shaama M.S., Shane Yost, Joonho Lee, David Small,
  Daniel Levine, Susi Lehtola, Hugh Burton, Evgeny Epifanovsky,
  Bang C. Huynh
 -----------------------------------------------------------------------
 Hartree-Fock
 A restricted SCF calculation will be
 performed using DIIS
 SCF converges when DIIS error is below 1.0e-05
 ---------------------------------------
  Cycle       Energy         DIIS error
 ---------------------------------------
    1     -75.9133588542      1.40e-01  
    2     -75.9928994848      2.41e-02  
    3     -76.0194450977      1.21e-02  
    4     -76.0265857539      1.38e-03  
    5     -76.0267568224      3.56e-04  
    6     -76.0267715243      5.95e-05  
    7     -76.0267720404      9.11e-06  Convergence criterion met
 ---------------------------------------
 SCF time:   CPU 0.11s  wall 0.00s 
 SCF   energy in the final basis set =      -76.0267720404
 Total energy in the final basis set =      -76.0267720404
 
 --------------------------------------------------------------
             Orbital Energies (a.u.) and Symmetries
 --------------------------------------------------------------
 
 Alpha MOs, Restricted
 -- Occupied --                  
-20.551  -1.336  -0.699  -0.567  -0.493
  1 A1    2 A1    1 B1    3 A1    1 B2                                         
 -- Virtual --                   
  0.185   0.256   0.789   0.854   1.164   1.200   1.253   1.444
  4 A1    2 B1    3 B1    5 A1    6 A1    2 B2    4 B1    7 A1                 
  1.476   1.674   1.867   1.935   2.452   2.489   3.285   3.338
  1 A2    3 B2    8 A1    5 B1    6 B1    9 A1    4 B2    2 A2                 
  3.510   3.865   4.147
 10 A1   11 A1    7 B1                                                         
 
 Beta MOs, Restricted
 -- Occupied --                  
-20.551  -1.336  -0.699  -0.567  -0.493
  1 A1    2 A1    1 B1    3 A1    1 B2                                         
 -- Virtual --                   
  0.185   0.256   0.789   0.854   1.164   1.200   1.253   1.444
  4 A1    2 B1    3 B1    5 A1    6 A1    2 B2    4 B1    7 A1                 
  1.476   1.674   1.867   1.935   2.452   2.489   3.285   3.338
  1 A2    3 B2    8 A1    5 B1    6 B1    9 A1    4 B2    2 A2                 
  3.510   3.865   4.147
 10 A1   11 A1    7 B1                                                         
 --------------------------------------------------------------
 

                        RESTRICTED (RHF) MOLECULAR ORBITAL COEFFICIENTS
                         1         2         3         4         5         6
 eigenvalues:        -20.551    -1.336    -0.699    -0.567    -0.493     0.185
   1  O     s        0.99727   0.20363  -0.00000  -0.06853   0.00000   0.08393
   2  O     s        0.01524  -0.44149   0.00000   0.14991  -0.00000  -0.07165
   3  O     s       -0.00267  -0.37604   0.00000   0.34974  -0.00000  -1.00221
   4  O     px      -0.00000  -0.00000   0.48993  -0.00000  -0.00000  -0.00000
   5  O     py       0.00000   0.00000  -0.00000  -0.00000  -0.63119  -0.00000
   6  O     pz      -0.00176   0.07876   0.00000   0.54540  -0.00000   0.19071
   7  O     px      -0.00000   0.00000   0.22207  -0.00000  -0.00000  -0.00000
   8  O     py      -0.00000  -0.00000  -0.00000  -0.00000  -0.49567   0.00000
   9  O     pz       0.00049  -0.01303   0.00000   0.36530  -0.00000   0.33724
  10  O     d 1      0.00000   0.00000  -0.00000  -0.00000  -0.00000   0.00000
  11  O     d 2     -0.00000  -0.00000   0.00000   0.00000   0.01820  -0.00000
  12  O     d 3      0.00001  -0.00124  -0.00000  -0.01787  -0.00000  -0.00754
  13  O     d 4      0.00000  -0.00000  -0.02680   0.00000   0.00000   0.00000
  14  O     d 5      0.00014  -0.00301   0.00000  -0.00459  -0.00000  -0.00996
  15  H 1   s       -0.00024  -0.19341  -0.32787  -0.20645   0.00000   0.05901
  16  H 1   s        0.00042  -0.01010  -0.08989  -0.04042  -0.00000   0.82908
  17  H 1   px      -0.00057  -0.03729  -0.02331  -0.03176  -0.00000   0.01752
  18  H 1   py       0.00000   0.00000  -0.00000  -0.00000  -0.03106   0.00000
  19  H 1   pz      -0.00048  -0.02048  -0.03267   0.00752  -0.00000   0.01631
  20  H 2   s       -0.00024  -0.19341   0.32787  -0.20645  -0.00000   0.05901
  21  H 2   s        0.00042  -0.01010   0.08989  -0.04042   0.00000   0.82908
  22  H 2   px       0.00057   0.03729  -0.02331   0.03176  -0.00000  -0.01752
  23  H 2   py      -0.00000   0.00000  -0.00000  -0.00000  -0.03106   0.00000
  24  H 2   pz      -0.00048  -0.02048   0.03267   0.00752   0.00000   0.01631
                         7         8         9        10
 eigenvalues:          0.256     0.789     0.854     1.164
   1  O     s       -0.00000   0.00000  -0.04791  -0.04750
   2  O     s        0.00000  -0.00000   0.25617   0.11463
   3  O     s       -0.00000   0.00000  -0.32022   0.74784
   4  O     px      -0.28332  -0.26799  -0.00000  -0.00000
   5  O     py      -0.00000  -0.00000  -0.00000  -0.00000
   6  O     pz      -0.00000   0.00000  -0.32943   0.75442
   7  O     px      -0.67095  -0.46043  -0.00000   0.00000
   8  O     py       0.00000  -0.00000   0.00000   0.00000
   9  O     pz       0.00000   0.00000   0.00971  -1.27865
  10  O     d 1      0.00000   0.00000   0.00000   0.00000
  11  O     d 2      0.00000   0.00000  -0.00000   0.00000
  12  O     d 3      0.00000  -0.00000  -0.00099   0.01282
  13  O     d 4      0.02123  -0.11169  -0.00000  -0.00000
  14  O     d 5     -0.00000   0.00000  -0.10698  -0.00676
  15  H 1   s       -0.02608  -0.94430  -0.78771  -0.54640
  16  H 1   s       -1.44366   0.68693   0.54805  -0.11294
  17  H 1   px      -0.02080   0.07387   0.29576  -0.08413
  18  H 1   py      -0.00000   0.00000   0.00000  -0.00000
  19  H 1   pz      -0.01712   0.15271   0.05930  -0.25110
  20  H 2   s        0.02608   0.94430  -0.78771  -0.54640
  21  H 2   s        1.44366  -0.68693   0.54805  -0.11294
  22  H 2   px      -0.02080   0.07387  -0.29576   0.08413
  23  H 2   py       0.00000   0.00000  -0.00000   0.00000
  24  H 2   pz       0.01712  -0.15271   0.05930  -0.25110
 
          Ground-State Mulliken Net Atomic Charges

     Atom                 Charge (a.u.)
  ----------------------------------------
      1 O                    -0.306048
      2 H                     0.153024
      3 H                     0.153024
  ----------------------------------------
  Sum of atomic charges =     0.000000

 -----------------------------------------------------------------
                    Cartesian Multipole Moments
 -----------------------------------------------------------------
    Charge (ESU x 10^10)
                -0.0000
    Dipole Moment (Debye)
         X       0.0000      Y       0.0000      Z      -2.0573
       Tot       2.0573
    Quadrupole Moments (Debye-Ang)
        XX      -4.1220     XY       0.0000     YY      -7.0345
        XZ       0.0000     YZ       0.0000     ZZ      -5.8851
    Octopole Moments (Debye-Ang^2)
       XXX       0.0000    XXY      -0.0000    XYY       0.0000
       YYY       0.0000    XXZ      -1.2944    XYZ      -0.0000
       YYZ      -0.2987    XZZ       0.0000    YZZ      -0.0000
       ZZZ      -1.2010
    Hexadecapole Moments (Debye-Ang^3)
      XXXX      -5.5127   XXXY       0.0000   XXYY      -2.0242
      XYYY       0.0000   YYYY      -4.8516   XXXZ       0.0000
      XXYZ       0.0000   XYYZ       0.0000   YYYZ      -0.0000
      XXZZ      -1.5223   XYZZ       0.0000   YYZZ      -1.8383
      XZZZ       0.0000   YZZZ       0.0000   ZZZZ      -5.8312
 -----------------------------------------------------------------
 Total job time:  0.33s(wall), 0.17s(cpu) 
 Tue Mar 31 15:10:45 2026

        *************************************************************
        *                                                           *
        *  Thank you very much for using Q-Chem.  Have a nice day.  *
        *                                                           *
        *************************************************************


