
Running Job 1 of 1 h2o_ccpvtz_sph.q
qchem h2o_ccpvtz_sph.q_329876.0 /scratch/jgrebol/PROVA/QCHEM/ORDER/QCHEM/qc_3643907/qchem329876/ 0
/scicomp/CentOS/7.4.1708/Skylake/software/QCHEM/6.0.1/exe/qcprog.exe_s h2o_ccpvtz_sph.q_329876.0 /scratch/jgrebol/PROVA/QCHEM/ORDER/QCHEM/qc_3643907/qchem329876/
                  Welcome to Q-Chem
     A Quantum Leap Into The Future Of Chemistry


 Q-Chem 6.0, Q-Chem, Inc., Pleasanton, CA (2022)

 License issued to: SRG Txomin Romero Asturiano, Donostia International Physics Center

 E. Epifanovsky,  A. T. B. Gilbert,  Xintian Feng,  Joonho Lee,  Yuezhi Mao,  
 N. Mardirossian,  P. Pokhilko,  A. White,  M. Wormit,  M. P. Coons,  
 A. L. Dempwolff,  Zhengting Gan,  D. Hait,  P. R. Horn,  L. D. Jacobson,  
 I. Kaliman,  J. Kussmann,  A. W. Lange,  Ka Un Lao,  D. S. Levine,  Jie Liu,  
 S. C. McKenzie,  A. F. Morrison,  K. Nanda,  F. Plasser,  D. R. Rehn,  
 M. L. Vidal,  Zhi-Qiang You,  Ying Zhu,  B. Alam,  B. Albrecht,  
 A. Aldossary,  E. Alguire,  J. H. Andersen,  V. Athavale,  D. Barton,  
 K. Begam,  A. Behn,  N. Bellonzi,  Y. A. Bernard,  E. J. Berquist,  
 H. Burton,  A. Carreras,  K. Carter-Fenk,  Romit Chakraborty,  
 Chandrima Chakravarty,  Junhan Chen,  A. D. Chien,  K. D. Closser,  
 V. Cofer-Shabica,  L. Cunha,  S. Dasgupta,  Jia Deng,  M. de Wergifosse,  
 M. Diedenhofen,  Hainam Do,  S. Ehlert,  Po-Tung Fang,  S. Fatehi,  
 Qingguo Feng,  T. Friedhoff,  B. Ganoe,  J. Gayvert,  Qinghui Ge,  
 G. Gidofalvi,  M. Goldey,  J. Gomes,  C. Gonzalez-Espinoza,  S. Gulania,  
 A. Gunina,  J. A. Gyamfi,  M. W. D. Hanson-Heine,  P. H. P. Harbach,  
 A. W. Hauser,  M. F. Herbst,  M. Hernandez Vera,  M. Hodecker,  
 Z. C. Holden,  S. Houck,  Xunkun Huang,  Kerwin Hui,  B. C. Huynh,  
 K. Ikeda,  M. Ivanov,  Hyunjun Ji,  Zuxin Jin,  Hanjie Jiang,  B. Kaduk,  
 S. Kaehler,  R. Kang,  K. Khistyaev,  Jaehoon Kim,  Yongbin Kim,  
 P. Klunzinger,  Z. Koczor-Benda,  Joong Hoon Koh,  D. Kosenkov,  
 Saikiran Kotaru,  L. Koulias,  T. Kowalczyk,  C. M. Krauter,  K. Kue,  
 A. Kunitsa,  T. Kus,  A. Landau,  K. V. Lawler,  D. Lefrancois,  S. Lehtola,  
 Rain Li,  Shaozhi Li,  Yi-Pei Li,  Jiashu Liang,  M. Liebenthal,  
 Hung-Hsuan Lin,  You-Sheng Lin,  Fenglai Liu,  Kuan-Yu Liu,  
 M. Loipersberger,  A. Luenser,  C. Malbon,  A. Manjanath,  P. Manohar,  
 E. Mansoor,  S. F. Manzer,  Shan-Ping Mao,  A. V. Marenich,  T. Markovich,  
 S. Mason,  F. Matz,  S. A. Maurer,  P. F. McLaughlin,  M. F. S. J. Menger,  
 J.-M. Mewes,  S. A. Mewes,  P. Morgante,  Mohammad Mostafanejad,  
 J. W. Mullinax,  K. J. Oosterbaan,  G. Paran,  V. Parravicini,  
 Alexander C. Paul,  Suranjan K. Paul,  F. Pavosevic,  Zheng Pei,  S. Prager,  
 E. I. Proynov,  E. Ramos,  B. Rana,  A. E. Rask,  A. Rettig,  R. M. Richard,  
 F. Rob,  E. Rossomme,  T. Scheele,  M. Scheurer,  M. Schneider,  
 P. E. Schneider,  N. Sergueev,  S. M. Sharada,  Hengyuan Shen,  
 W. Skomorowski,  D. W. Small,  C. J. Stein,  Yingli Su,  Yu-Chuan Su,  
 E. J. Sundstrom,  Zhen Tao,  J. Thirman,  Hung-Yi Tsai,  T. Tsuchimochi,  
 N. M. Tubman,  C. Utku,  S. P. Veccham,  O. Vydrov,  J. Wenzel,  
 Jonathan Wong,  J. Witte,  A. Yamada,  Chou-Hsun Yang,  Kun Yao,  
 S. Yeganeh,  S. R. Yost,  A. Zech,  F. Zeller,  Igor Ying Zhang,  
 Xing Zhang,  Yu Zhang,  D. Zuev,  A. Aspuru-Guzik,  A. T. Bell,  
 N. A. Besley,  K. B. Bravaya,  B. R. Brooks,  D. Casanova,  Jeng-Da Chai,  
 Hsing-Ta Chen,  S. Coriani,  C. J. Cramer,  A. E. DePrince, III,  
 R. A. DiStasio Jr.,  A. Dreuw,  B. D. Dunietz,  T. R. Furlani,  
 W. A. Goddard III,  S. Grimme,  S. Hammes-Schiffer,  T. Head-Gordon,  
 W. J. Hehre,  Chao-Ping Hsu,  T.-C. Jagau,  Yousung Jung,  A. Klamt,  
 Jing Kong,  D. S. Lambrecht,  Xiangyuan Li,  WanZhen Liang,  N. J. Mayhall,  
 C. W. McCurdy,  J. B. Neaton,  T. Neudecker,  C. Ochsenfeld,  
 J. A. Parkhill,  R. Peverati,  V. A. Rassolov,  Haisheng Ren,  Yihan Shao,  
 L. V. Slipchenko,  R. P. Steele,  J. E. Subotnik,  A. J. W. Thom,  
 A. Tkatchenko,  D. G. Truhlar,  T. Van Voorhis,  Fan Wang,  
 T. A. Wesolowski,  K. B. Whaley,  H. L. Woodcock III,  P. M. Zimmerman,  
 S. Faraji,  P. M. W. Gill,  M. Head-Gordon,  J. M. Herbert,  A. I. Krylov

 Contributors to earlier versions of Q-Chem not listed above: 
 R. D. Adamson,  B. Austin,  R. Baer,  J. Baker,  G. J. O. Beran,  
 K. Brandhorst,  S. T. Brown,  E. F. C. Byrd,  Arup K. Chakraborty,  
 G. K. L. Chan,  Chun-Min Chang,  Yunqing Chen,  C.-L. Cheng,  
 Siu Hung Chien,  D. M. Chipman,  D. L. Crittenden,  H. Dachsel,  
 R. J. Doerksen,  A. D. Dutoi,  R. G. Edgar,  J. Fosso-Tande,  
 L. Fusti-Molnar,  D. Ghosh,  A. Ghysels,  A. Golubeva-Zadorozhnaya,  
 J. Gonthier,  M. S. Gordon,  S. R. Gwaltney,  G. Hawkins,  J. E. Herr,  
 A. Heyden,  S. Hirata,  E. G. Hohenstein,  G. Kedziora,  F. J. Keil,  
 C. Kelley,  Jihan Kim,  R. A. King,  R. Z. Khaliullin,  P. P. Korambath,  
 W. Kurlancheek,  A. Laurent,  A. M. Lee,  M. S. Lee,  S. V. Levchenko,  
 Ching Yeh Lin,  D. Liotard,  E. Livshits,  R. C. Lochan,  I. Lotan,  
 L. A. Martinez-Martinez,  P. E. Maslen,  N. Nair,  D. P. O'Neill,  
 D. Neuhauser,  E. Neuscamman,  C. M. Oana,  R. Olivares-Amaya,  R. Olson,  
 T. M. Perrine,  B. Peters,  P. A. Pieniazek,  A. Prociuk,  Y. M. Rhee,  
 J. Ritchie,  M. A. Rohrdanz,  E. Rosta,  N. J. Russ,  H. F. Schaefer III,  
 M. W. Schmidt,  N. E. Schultz,  S. Sharma,  N. Shenvi,  C. D. Sherrill,  
 A. C. Simmonett,  A. Sodt,  T. Stein,  D. Stuck,  K. S. Thanthiriwatte,  
 V. Vanovschi,  L. Vogt,  Tao Wang,  A. Warshel,  M. A. Watson,  
 C. F. Williams,  Q. Wu,  X. Xu,  Jun Yang,  W. Zhang,  Yan Zhao

   Please cite Q-Chem as follows:
  "Software for the frontiers of quantum chemistry:
   An overview of developments in the Q-Chem 5 package"
   J. Chem. Phys. 155, 084801 (2021)
   https://doi.org/10.1063/5.0055522 (open access)

 Q-Chem 6.0.1 for Intel X86 EM64T Linux

 Parts of Q-Chem use Armadillo 9.900.5 (Nocturnal Misbehaviour).
 http://arma.sourceforge.net/

 Q-Chem begins on Tue Mar 31 15:10:54 2026  

 Host: 
0

     Scratch files written to /scratch/jgrebol/PROVA/QCHEM/ORDER/QCHEM/qc_3643907/qchem329876//
 Aug2322 |scratch|qcdevops|jenkins|workspace|build_RNUM 8725   
 Processing $rem in /scicomp/CentOS/7.4.1708/Skylake/software/QCHEM/6.0.1/config/preferences:
 Processing $rem in /dipc/jgrebol/.qchemrc:

 Checking the input file for inconsistencies... 	...done.

 Q-Chem warning in module forms1/BasisType.C, line 2853:

 You are not using the predefined 5D/6D in this basis set.


--------------------------------------------------------------
User input:
--------------------------------------------------------------
$molecule
0 1
O      0.000000    0.000000    0.117300
H      0.000000    0.757200   -0.469200
H      0.000000   -0.757200   -0.469200
$end

$rem
METHOD = HF
BASIS = cc-pVTZ
PURECART = 11
GUI = 2
PRINT_ORBITALS = TRUE
PRINT_GENERAL_BASIS = TRUE
$end
--------------------------------------------------------------
 ----------------------------------------------------------------
             Standard Nuclear Orientation (Angstroms)
    I     Atom           X                Y                Z
 ----------------------------------------------------------------
    1      O       0.0000000000     0.0000000000     0.1173000000
    2      H      -0.7572000000    -0.0000000000    -0.4692000000
    3      H       0.7572000000     0.0000000000    -0.4692000000
 ----------------------------------------------------------------
 Molecular Point Group                 C2v   NOp =  4
 Largest Abelian Subgroup              C2v   NOp =  4
 Nuclear Repulsion Energy =           9.18953376 hartrees
 There are        5 alpha and        5 beta electrons
 Requested basis set is cc-pVTZ
 Basis set in general basis input format:
-----------------------------------------------------------------------
$basis
O    0
S    7    1.000000
   1.53300000E+04    5.14080000E-04 
   2.29900000E+03    3.97596000E-03 
   5.22400000E+02    2.04846000E-02 
   1.47300000E+02    8.01179300E-02 
   4.75500000E+01    2.33363000E-01 
   1.67600000E+01    4.37776010E-01 
   6.20700000E+00    3.53130060E-01 
S    7    1.000000
   1.53300000E+04    1.76000000E-06 
   2.29900000E+03    6.30000000E-06 
   1.47300000E+02   -7.72900000E-04 
   4.75500000E+01   -7.37531000E-03 
   1.67600000E+01   -4.88112800E-02 
   6.20700000E+00   -1.25100280E-01 
   6.88200000E-01    7.87800670E-01 
S    1    1.000000
   1.75200000E+00    1.00000000E+00 
S    1    1.000000
   2.38400000E-01    1.00000000E+00 
P    3    1.000000
   3.44600000E+01    1.59280000E-02 
   7.74900000E+00    9.97400000E-02 
   2.28000000E+00    3.10492000E-01 
P    1    1.000000
   7.15600000E-01    1.00000000E+00 
P    1    1.000000
   2.14000000E-01    1.00000000E+00 
D    1    1.000000
   2.31400000E+00    1.00000000E+00 
D    1    1.000000
   6.45000000E-01    1.00000000E+00 
F    1    1.000000
   1.42800000E+00    1.00000000E+00 
****
H    0
S    3    1.000000
   3.38700000E+01    6.06800000E-03 
   5.09500000E+00    4.53080000E-02 
   1.15900000E+00    2.02822000E-01 
S    1    1.000000
   3.25800000E-01    1.00000000E+00 
S    1    1.000000
   1.02700000E-01    1.00000000E+00 
P    1    1.000000
   1.40700000E+00    1.00000000E+00 
P    1    1.000000
   3.88000000E-01    1.00000000E+00 
D    1    1.000000
   1.05700000E+00    1.00000000E+00 
****
H    0
S    3    1.000000
   3.38700000E+01    6.06800000E-03 
   5.09500000E+00    4.53080000E-02 
   1.15900000E+00    2.02822000E-01 
S    1    1.000000
   3.25800000E-01    1.00000000E+00 
S    1    1.000000
   1.02700000E-01    1.00000000E+00 
P    1    1.000000
   1.40700000E+00    1.00000000E+00 
P    1    1.000000
   3.88000000E-01    1.00000000E+00 
D    1    1.000000
   1.05700000E+00    1.00000000E+00 
****
$end
-----------------------------------------------------------------------
 There are 22 shells and 58 basis functions

 Total QAlloc Memory Limit   2048 MB
 Mega-Array Size       188 MB
 MEM_STATIC part       192 MB


                       Distance Matrix (Angstroms)
             O (  1)   H (  2)
   H (  2)  0.957776
   H (  3)  0.957776  1.514400
 
 A cutoff of  1.0D-09 yielded    253 shell pairs
 There are      1793 function pairs (      2271 Cartesian)
 Smallest overlap matrix eigenvalue = 2.52E-03

 Scale SEOQF with 1.000000e+00/1.000000e+00/1.000000e+00

 Standard Electronic Orientation quadrupole field applied
 Nucleus-field energy     =    -0.0000000002 hartrees
 Guess from superposition of atomic densities
 Warning:  Energy on first SCF cycle will be non-variational
 SAD guess density has 10.000000 electrons

 -----------------------------------------------------------------------
  General SCF calculation program by
  Eric Jon Sundstrom, Paul Horn, Yuezhi Mao, Dmitri Zuev, Alec White,
  David Stuck, Shaama M.S., Shane Yost, Joonho Lee, David Small,
  Daniel Levine, Susi Lehtola, Hugh Burton, Evgeny Epifanovsky,
  Bang C. Huynh
 -----------------------------------------------------------------------
 Hartree-Fock
 A restricted SCF calculation will be
 performed using DIIS
 SCF converges when DIIS error is below 1.0e-05
 ---------------------------------------
  Cycle       Energy         DIIS error
 ---------------------------------------
    1     -75.9280657517      5.88e-02  
    2     -76.0232851108      1.02e-02  
    3     -76.0483728346      5.84e-03  
    4     -76.0569622604      5.54e-04  
    5     -76.0571099449      1.52e-04  
    6     -76.0571264804      3.04e-05  
    7     -76.0571273909      5.29e-06  Convergence criterion met
 ---------------------------------------
 SCF time:   CPU 0.48s  wall 1.00s 
 SCF   energy in the final basis set =      -76.0571273909
 Total energy in the final basis set =      -76.0571273909
 
 --------------------------------------------------------------
             Orbital Energies (a.u.) and Symmetries
 --------------------------------------------------------------
 
 Alpha MOs, Restricted
 -- Occupied --                  
-20.555  -1.345  -0.709  -0.578  -0.504
  1 A1    2 A1    1 B1    3 A1    1 B2                                         
 -- Virtual --                   
  0.142   0.204   0.544   0.602   0.668   0.787   0.801   0.805
  4 A1    2 B1    3 B1    5 A1    6 A1    2 B2    7 A1    4 B1                 
  0.861   0.955   1.132   1.197   1.526   1.566   2.037   2.053
  1 A2    3 B2    8 A1    5 B1    6 B1    9 A1    4 B2    7 B1                 
  2.066   2.171   2.234   2.590   2.964   3.356   3.491   3.582
  2 A2   10 A1   11 A1   12 A1    8 B1    5 B2   13 A1    3 A2                 
  3.656   3.800   3.878   3.885   3.962   4.019   4.076   4.192
  9 B1    6 B2   10 B1   14 A1    4 A2    7 B2   11 B1   15 A1                 
  4.313   4.387   4.584   4.685   4.865   5.157   5.252   5.528
  5 A2   16 A1   12 B1    8 B2   13 B1   17 A1   18 A1   14 B1                 
  6.051   6.569   6.923   6.942   7.003   7.020   7.062   7.168
  9 B2   19 A1   10 B2    6 A2   11 B2   20 A1   15 B1   21 A1                 
  7.236   7.456   7.794   8.288  12.869
  7 A2   22 A1   16 B1   17 B1   23 A1                                         
 
 Beta MOs, Restricted
 -- Occupied --                  
-20.555  -1.345  -0.709  -0.578  -0.504
  1 A1    2 A1    1 B1    3 A1    1 B2                                         
 -- Virtual --                   
  0.142   0.204   0.544   0.602   0.668   0.787   0.801   0.805
  4 A1    2 B1    3 B1    5 A1    6 A1    2 B2    7 A1    4 B1                 
  0.861   0.955   1.132   1.197   1.526   1.566   2.037   2.053
  1 A2    3 B2    8 A1    5 B1    6 B1    9 A1    4 B2    7 B1                 
  2.066   2.171   2.234   2.590   2.964   3.356   3.491   3.582
  2 A2   10 A1   11 A1   12 A1    8 B1    5 B2   13 A1    3 A2                 
  3.656   3.800   3.878   3.885   3.962   4.019   4.076   4.192
  9 B1    6 B2   10 B1   14 A1    4 A2    7 B2   11 B1   15 A1                 
  4.313   4.387   4.584   4.685   4.865   5.157   5.252   5.528
  5 A2   16 A1   12 B1    8 B2   13 B1   17 A1   18 A1   14 B1                 
  6.051   6.569   6.923   6.942   7.003   7.020   7.062   7.168
  9 B2   19 A1   10 B2    6 A2   11 B2   20 A1   15 B1   21 A1                 
  7.236   7.456   7.794   8.288  12.869
  7 A2   22 A1   16 B1   17 B1   23 A1                                         
 --------------------------------------------------------------
 

                        RESTRICTED (RHF) MOLECULAR ORBITAL COEFFICIENTS
                         1         2         3         4         5         6
 eigenvalues:        -20.555    -1.345    -0.709    -0.578    -0.504     0.142
   1  O     s       -0.97687   0.20214   0.00000  -0.06654  -0.00000  -0.06952
   2  O     s        0.00818  -0.48634  -0.00000   0.17264  -0.00000   0.10004
   3  O     s       -0.04351  -0.13217  -0.00000   0.05355   0.00000   0.03863
   4  O     s       -0.00119  -0.28376  -0.00000   0.27751   0.00000   1.55253
   5  O     px       0.00000  -0.00000  -0.28262  -0.00000  -0.00000   0.00000
   6  O     py       0.00000  -0.00000   0.00000   0.00000  -0.35706  -0.00000
   7  O     pz       0.00189   0.04447  -0.00000   0.31294   0.00000  -0.07906
   8  O     px      -0.00000   0.00000  -0.33993  -0.00000  -0.00000  -0.00000
   9  O     py      -0.00000   0.00000   0.00000  -0.00000  -0.44426  -0.00000
  10  O     pz      -0.00149   0.06375   0.00000   0.38257  -0.00000  -0.19387
  11  O     px      -0.00000   0.00000  -0.15909  -0.00000  -0.00000  -0.00000
  12  O     py       0.00000  -0.00000   0.00000  -0.00000  -0.37572  -0.00000
  13  O     pz      -0.00015   0.01243   0.00000   0.27731  -0.00000  -0.46136
  14  O     d 1      0.00000  -0.00000  -0.00000   0.00000  -0.00000   0.00000
  15  O     d 2     -0.00000   0.00000   0.00000  -0.00000   0.00522  -0.00000
  16  O     d 3     -0.00002  -0.00102  -0.00000  -0.00555   0.00000   0.00099
  17  O     d 4      0.00000  -0.00000   0.01309   0.00000   0.00000   0.00000
  18  O     d 5     -0.00005  -0.00382   0.00000  -0.00326  -0.00000  -0.00241
  19  O     d 1      0.00000   0.00000   0.00000  -0.00000  -0.00000  -0.00000
  20  O     d 2     -0.00000  -0.00000  -0.00000   0.00000   0.01806   0.00000
  21  O     d 3      0.00017  -0.00288   0.00000  -0.01820   0.00000   0.00882
  22  O     d 4      0.00000  -0.00000   0.02246   0.00000   0.00000   0.00000
  23  O     d 5      0.00050  -0.00762  -0.00000  -0.00577   0.00000   0.05169
  24  O     f 1      0.00000   0.00000   0.00000  -0.00000  -0.00402  -0.00000
  25  O     f 2      0.00000  -0.00000  -0.00000   0.00000   0.00000   0.00000
  26  O     f 3      0.00000   0.00000   0.00000  -0.00000  -0.00157  -0.00000
  27  O     f 4      0.00001  -0.00086  -0.00000   0.00070   0.00000   0.00424
  28  O     f 5     -0.00000   0.00000  -0.00021  -0.00000  -0.00000  -0.00000
  29  O     f 6     -0.00010   0.00286   0.00000   0.00314  -0.00000  -0.00860
  30  O     f 7      0.00000   0.00000  -0.00332  -0.00000  -0.00000  -0.00000
  31  H 1   s       -0.00050  -0.08932   0.14202  -0.08608   0.00000  -0.02725
  32  H 1   s       -0.00101  -0.07289   0.21982  -0.13915  -0.00000  -0.28409
  33  H 1   s        0.00025  -0.00624   0.06147  -0.02610   0.00000  -0.92131
  34  H 1   px      -0.00024  -0.01050   0.00950  -0.00954  -0.00000   0.00564
  35  H 1   py      -0.00000   0.00000   0.00000   0.00000  -0.01007  -0.00000
  36  H 1   pz      -0.00013  -0.00743   0.01284   0.00071  -0.00000   0.00147
  37  H 1   px      -0.00045  -0.00984   0.01953  -0.02142  -0.00000  -0.14441
  38  H 1   py       0.00000  -0.00000   0.00000   0.00000  -0.03120   0.00000
  39  H 1   pz      -0.00031  -0.00493   0.02388   0.01232  -0.00000  -0.11059
  40  H 1   d 1     -0.00000   0.00000   0.00000   0.00000  -0.00415   0.00000
  41  H 1   d 2     -0.00000  -0.00000  -0.00000   0.00000  -0.00287  -0.00000
  42  H 1   d 3      0.00006   0.00005   0.00199   0.00222  -0.00000  -0.00393
  43  H 1   d 4      0.00012  -0.00196   0.00577  -0.00072  -0.00000  -0.01757
  44  H 1   d 5      0.00001  -0.00137   0.00317  -0.00328  -0.00000  -0.00839
  45  H 2   s       -0.00050  -0.08932  -0.14202  -0.08608  -0.00000  -0.02725
  46  H 2   s       -0.00101  -0.07289  -0.21982  -0.13915   0.00000  -0.28409
  47  H 2   s        0.00025  -0.00624  -0.06147  -0.02610  -0.00000  -0.92131
  48  H 2   px       0.00024   0.01050   0.00950   0.00954  -0.00000  -0.00564
  49  H 2   py      -0.00000  -0.00000  -0.00000   0.00000  -0.01007  -0.00000
  50  H 2   pz      -0.00013  -0.00743  -0.01284   0.00071  -0.00000   0.00147
  51  H 2   px       0.00045   0.00984   0.01953   0.02142  -0.00000   0.14441
  52  H 2   py      -0.00000  -0.00000  -0.00000   0.00000  -0.03120   0.00000
  53  H 2   pz      -0.00031  -0.00493  -0.02388   0.01232   0.00000  -0.11059
  54  H 2   d 1      0.00000   0.00000   0.00000  -0.00000   0.00415  -0.00000
  55  H 2   d 2     -0.00000  -0.00000  -0.00000   0.00000  -0.00287   0.00000
  56  H 2   d 3      0.00006   0.00005  -0.00199   0.00222  -0.00000  -0.00393
  57  H 2   d 4     -0.00012   0.00196   0.00577   0.00072  -0.00000   0.01757
  58  H 2   d 5      0.00001  -0.00137  -0.00317  -0.00328   0.00000  -0.00839
                         7         8         9        10
 eigenvalues:          0.204     0.544     0.602     0.668
   1  O     s       -0.00000  -0.00000   0.05308  -0.00656
   2  O     s        0.00000   0.00000  -0.19359  -0.07071
   3  O     s        0.00000  -0.00000  -0.02811   0.04141
   4  O     s       -0.00000   0.00000  -0.77725  -4.62512
   5  O     px       0.13577  -0.10554  -0.00000  -0.00000
   6  O     py       0.00000   0.00000   0.00000  -0.00000
   7  O     pz       0.00000   0.00000   0.09213  -0.24722
   8  O     px       0.20194  -0.28073   0.00000   0.00000
   9  O     py       0.00000   0.00000   0.00000  -0.00000
  10  O     pz       0.00000  -0.00000   0.15841  -0.10632
  11  O     px       0.84071  -1.25945   0.00000   0.00000
  12  O     py      -0.00000  -0.00000  -0.00000   0.00000
  13  O     pz       0.00000  -0.00000   0.68913   2.66720
  14  O     d 1     -0.00000   0.00000   0.00000   0.00000
  15  O     d 2      0.00000   0.00000  -0.00000   0.00000
  16  O     d 3     -0.00000  -0.00000  -0.00610   0.01621
  17  O     d 4      0.00291  -0.02737  -0.00000   0.00000
  18  O     d 5      0.00000  -0.00000   0.02009   0.02247
  19  O     d 1     -0.00000  -0.00000  -0.00000   0.00000
  20  O     d 2     -0.00000  -0.00000   0.00000  -0.00000
  21  O     d 3     -0.00000   0.00000   0.01050  -0.08653
  22  O     d 4     -0.05978   0.14231  -0.00000  -0.00000
  23  O     d 5     -0.00000   0.00000  -0.03959  -0.27979
  24  O     f 1     -0.00000   0.00000  -0.00000   0.00000
  25  O     f 2      0.00000  -0.00000  -0.00000  -0.00000
  26  O     f 3      0.00000  -0.00000  -0.00000   0.00000
  27  O     f 4     -0.00000   0.00000  -0.00973  -0.01109
  28  O     f 5      0.00081  -0.01513   0.00000   0.00000
  29  O     f 6      0.00000  -0.00000   0.01746   0.03116
  30  O     f 7      0.00276  -0.01585   0.00000   0.00000
  31  H 1   s        0.01704  -0.09857   0.08112  -0.03419
  32  H 1   s        0.13766  -1.56065   1.45222   2.29254
  33  H 1   s        1.76596   0.58594  -0.57772   0.47329
  34  H 1   px      -0.01193  -0.04781   0.03153   0.02332
  35  H 1   py       0.00000  -0.00000   0.00000  -0.00000
  36  H 1   pz      -0.01083  -0.03024   0.01781   0.01367
  37  H 1   px       0.13421  -0.04712  -0.19678   0.95429
  38  H 1   py      -0.00000  -0.00000   0.00000   0.00000
  39  H 1   pz       0.10845   0.02221   0.07129   0.61204
  40  H 1   d 1     -0.00000  -0.00000   0.00000  -0.00000
  41  H 1   d 2      0.00000   0.00000   0.00000  -0.00000
  42  H 1   d 3     -0.00067   0.00504   0.01305  -0.00359
  43  H 1   d 4      0.00941  -0.02990   0.01070   0.06372
  44  H 1   d 5      0.00897  -0.01523   0.00925   0.05195
  45  H 2   s       -0.01704   0.09857   0.08112  -0.03419
  46  H 2   s       -0.13766   1.56065   1.45222   2.29254
  47  H 2   s       -1.76596  -0.58594  -0.57772   0.47329
  48  H 2   px      -0.01193  -0.04781  -0.03153  -0.02332
  49  H 2   py       0.00000   0.00000   0.00000  -0.00000
  50  H 2   pz       0.01083   0.03024   0.01781   0.01367
  51  H 2   px       0.13421  -0.04712   0.19678  -0.95429
  52  H 2   py       0.00000  -0.00000   0.00000   0.00000
  53  H 2   pz      -0.10845  -0.02221   0.07129   0.61204
  54  H 2   d 1     -0.00000   0.00000   0.00000   0.00000
  55  H 2   d 2     -0.00000  -0.00000   0.00000  -0.00000
  56  H 2   d 3      0.00067  -0.00504   0.01305  -0.00359
  57  H 2   d 4      0.00941  -0.02990  -0.01070  -0.06372
  58  H 2   d 5     -0.00897   0.01523   0.00925   0.05195
 
          Ground-State Mulliken Net Atomic Charges

     Atom                 Charge (a.u.)
  ----------------------------------------
      1 O                    -0.482881
      2 H                     0.241440
      3 H                     0.241440
  ----------------------------------------
  Sum of atomic charges =     0.000000

 -----------------------------------------------------------------
                    Cartesian Multipole Moments
 -----------------------------------------------------------------
    Charge (ESU x 10^10)
                -0.0000
    Dipole Moment (Debye)
         X       0.0000      Y       0.0000      Z      -2.0260
       Tot       2.0260
    Quadrupole Moments (Debye-Ang)
        XX      -4.1580     XY      -0.0000     YY      -7.2960
        XZ       0.0000     YZ       0.0000     ZZ      -6.0543
    Octopole Moments (Debye-Ang^2)
       XXX       0.0000    XXY       0.0000    XYY       0.0000
       YYY       0.0000    XXZ      -1.3833    XYZ      -0.0000
       YYZ      -0.2857    XZZ       0.0000    YZZ       0.0000
       ZZZ      -1.2097
    Hexadecapole Moments (Debye-Ang^3)
      XXXX      -5.6431   XXXY      -0.0000   XXYY      -2.1928
      XYYY      -0.0000   YYYY      -5.5869   XXXZ      -0.0000
      XXYZ       0.0000   XYYZ      -0.0000   YYYZ       0.0000
      XXZZ      -1.6447   XYZZ      -0.0000   YYZZ      -2.0556
      XZZZ      -0.0000   YZZZ       0.0000   ZZZZ      -6.4056
 -----------------------------------------------------------------
 Total job time:  0.70s(wall), 0.55s(cpu) 
 Tue Mar 31 15:10:55 2026

        *************************************************************
        *                                                           *
        *  Thank you very much for using Q-Chem.  Have a nice day.  *
        *                                                           *
        *************************************************************


