Jobname.Temp
SP        R                             6-31G(d,p)          
Number of atoms                            I                3
Charge                                     I                0
Multiplicity                               I                1
Number of electrons                        I               10
Number of alpha electrons                  I                5
Number of beta electrons                   I                5
Atomic numbers                             I   N=           3
           8           1           1
Current cartesian coordinates              R   N=           9
  0.00000000E+00  0.00000000E+00  2.21664874E-01 -1.43090062E+00 -8.76173933E-17
 -8.86659498E-01  1.43090062E+00  8.76173933E-17 -8.86659498E-01
Nuclear charges                            R   N=           3
  8.00000000E+00  1.00000000E+00  1.00000000E+00
Number of basis functions                  I               25
Number of contracted shells                I               10
Number of primitive shells                 I               21
Highest angular momentum                   I                2
Largest degree of contraction              I                6
Shell types                                I   N=          10
           0          -1          -1           2           0           0
           1           0           0           1
Number of primitives per shell             I   N=          10
           6           3           1           1           3           1
           1           3           1           1
Shell to atom map                          I   N=          10
           1           1           1           1           2           2
           2           3           3           3
Primitive exponents                        R   N=          21
  5.48467170E+03  8.25234950E+02  1.88046960E+02  5.29645000E+01  1.68975700E+01
  5.79963530E+00  1.55396160E+01  3.59993360E+00  1.01376180E+00  2.70005800E-01
  8.00000000E-01  1.87311370E+01  2.82539370E+00  6.40121700E-01  1.61277800E-01
  1.10000000E+00  1.87311370E+01  2.82539370E+00  6.40121700E-01  1.61277800E-01
  1.10000000E+00
Contraction coefficients                   R   N=          21
  1.83109981E-03  1.39500985E-02  6.84450927E-02  2.32714275E-01  4.70192950E-01
  3.58520862E-01 -1.10777504E-01 -1.48026305E-01  1.13076704E+00  1.00000000E+00
  1.00000000E+00  3.34945995E-02  2.34726947E-01  8.13757318E-01  1.00000000E+00
  1.00000000E+00  3.34945995E-02  2.34726947E-01  8.13757318E-01  1.00000000E+00
  1.00000000E+00
P(S=P) Contraction coefficients            R   N=          21
  0.00000000E+00  0.00000000E+00  0.00000000E+00  0.00000000E+00  0.00000000E+00
  0.00000000E+00  7.08742995E-02  3.39752798E-01  7.27158595E-01  1.00000000E+00
  0.00000000E+00  0.00000000E+00  0.00000000E+00  0.00000000E+00  0.00000000E+00
  0.00000000E+00  0.00000000E+00  0.00000000E+00  0.00000000E+00  0.00000000E+00
  0.00000000E+00
Coordinates of each shell                  R   N=          30
  0.00000000E+00  0.00000000E+00  2.21664874E-01  0.00000000E+00  0.00000000E+00
  2.21664874E-01  0.00000000E+00  0.00000000E+00  2.21664874E-01  0.00000000E+00
  0.00000000E+00  2.21664874E-01 -1.43090062E+00 -8.76173933E-17 -8.86659498E-01
 -1.43090062E+00 -8.76173933E-17 -8.86659498E-01 -1.43090062E+00 -8.76173933E-17
 -8.86659498E-01  1.43090062E+00  8.76173933E-17 -8.86659498E-01  1.43090062E+00
  8.76173933E-17 -8.86659498E-01  1.43090062E+00  8.76173933E-17 -8.86659498E-01
Overlap Matrix                             R   N=         325
  1.00000000E+00  2.33689906E-01  1.00000000E+00  0.00000000E+00  0.00000000E+00
  1.00000000E+00  0.00000000E+00  0.00000000E+00  0.00000000E+00  1.00000000E+00
  2.73736339E-18 -2.16345158E-17  0.00000000E+00  0.00000000E+00  1.00000000E+00
  1.67279760E-01  7.63640773E-01  0.00000000E+00  0.00000000E+00  1.48467437E-17
  1.00000000E+00  0.00000000E+00  0.00000000E+00  5.01520641E-01  0.00000000E+00
  0.00000000E+00  0.00000000E+00  1.00000000E+00  0.00000000E+00  0.00000000E+00
  0.00000000E+00  5.01520641E-01  0.00000000E+00  0.00000000E+00  0.00000000E+00
  1.00000000E+00  3.59470650E-19  2.59758264E-17  0.00000000E+00  0.00000000E+00
  5.01520641E-01  0.00000000E+00  0.00000000E+00  0.00000000E+00  1.00000000E+00
  3.35315380E-02  5.47065748E-01  0.00000000E+00  0.00000000E+00  0.00000000E+00
  6.99014733E-01  0.00000000E+00  0.00000000E+00 -2.01629053E-17  1.00000000E+00
  3.35315380E-02  5.47065748E-01  0.00000000E+00  0.00000000E+00  0.00000000E+00
  6.99014733E-01  0.00000000E+00  0.00000000E+00 -2.01629053E-17  3.33333333E-01
  1.00000000E+00  3.35315380E-02  5.47065748E-01  0.00000000E+00  0.00000000E+00
  0.00000000E+00  6.99014733E-01  0.00000000E+00  0.00000000E+00 -6.04887159E-17
  3.33333333E-01  3.33333333E-01  1.00000000E+00  0.00000000E+00  0.00000000E+00
  0.00000000E+00  0.00000000E+00  0.00000000E+00  0.00000000E+00  0.00000000E+00
  0.00000000E+00  0.00000000E+00  0.00000000E+00  0.00000000E+00  0.00000000E+00
  1.00000000E+00  0.00000000E+00  0.00000000E+00  0.00000000E+00  0.00000000E+00
  0.00000000E+00  0.00000000E+00 -3.49231764E-17  0.00000000E+00  0.00000000E+00
  0.00000000E+00  0.00000000E+00  0.00000000E+00  0.00000000E+00  1.00000000E+00
  0.00000000E+00  0.00000000E+00  0.00000000E+00  0.00000000E+00  0.00000000E+00
  0.00000000E+00  0.00000000E+00 -3.49231764E-17  0.00000000E+00  0.00000000E+00
  0.00000000E+00  0.00000000E+00  0.00000000E+00  0.00000000E+00  1.00000000E+00
  3.49715384E-02  2.48793571E-01 -2.27368476E-01 -1.39223038E-17 -1.76111478E-01
  4.27450667E-01 -4.61568113E-01 -2.82628956E-17 -3.57514129E-01  4.10389998E-01
  1.67223106E-01  3.13111004E-01  2.57896784E-17  3.26228938E-01  1.99757612E-17
  1.00000000E+00  6.89849962E-02  3.80305488E-01 -1.16833162E-01 -7.15396788E-18
 -9.04947826E-02  6.83856662E-01 -3.80279350E-01 -2.32853945E-17 -2.94550765E-01
  4.44288283E-01  3.99970579E-01  4.26558971E-01  4.70022598E-18  5.94559460E-02
  3.64062670E-18  6.58292049E-01  1.00000000E+00  4.56883472E-02  2.68188435E-01
 -1.85670516E-01 -2.01552828E-17 -2.54956125E-01  2.06345412E-01  3.11510177E-02
 -1.50859258E-17 -1.90830823E-01  1.13430825E-01  1.32228632E-01  3.39109837E-01
  1.72891329E-17  2.18700496E-01  2.83272952E-17  4.83206251E-18 -2.54226540E-16
  1.00000000E+00  2.79760440E-18  1.64218054E-17 -2.01552828E-17  1.43490231E-01
 -1.56115601E-17  1.26350124E-17 -1.50859258E-17  2.77522883E-01 -1.16850178E-17
  2.92114733E-17 -1.41691699E-17  2.07644888E-17 -3.14911724E-01  2.83272952E-17
 -2.43919343E-01 -1.96595361E-32  0.00000000E+00  0.00000000E+00  1.00000000E+00
  3.53885573E-02  2.07729156E-01 -2.54956125E-01 -1.56115601E-17 -5.39896522E-02
  1.59827766E-01 -1.90830823E-01 -1.16850178E-17  1.29712163E-01  3.69513251E-01
  1.02419562E-01 -1.89914626E-02  2.83272952E-17  4.34170334E-02  2.65852655E-18
  0.00000000E+00  0.00000000E+00  1.08468374E-31  0.00000000E+00  1.00000000E+00
  3.49715384E-02  2.48793571E-01  2.27368476E-01  1.39223038E-17 -1.76111478E-01
  4.27450667E-01  4.61568113E-01  2.82628956E-17 -3.57514129E-01  4.10389998E-01
  1.67223106E-01  3.13111004E-01  2.57896784E-17 -3.26228938E-01 -1.99757612E-17
  5.18597278E-02  2.24607309E-01  6.32319527E-02  3.87184042E-18  0.00000000E+00
  1.00000000E+00  6.89849962E-02  3.80305488E-01  1.16833162E-01  7.15396788E-18
 -9.04947826E-02  6.83856662E-01  3.80279350E-01  2.32853945E-17 -2.94550765E-01
  4.44288283E-01  3.99970579E-01  4.26558971E-01  4.70022598E-18 -5.94559460E-02
 -3.64062670E-18  2.24607309E-01  5.16631699E-01  1.32402544E-01  8.10731759E-18
  0.00000000E+00  6.58292049E-01  1.00000000E+00 -4.56883472E-02 -2.68188435E-01
 -1.85670516E-01 -2.01552828E-17  2.54956125E-01 -2.06345412E-01  3.11510177E-02
 -1.50859258E-17  1.90830823E-01 -1.13430825E-01 -1.32228632E-01 -3.39109837E-01
 -1.72891329E-17  2.18700496E-01  2.83272952E-17 -6.32319527E-02 -1.32402544E-01
 -8.85759016E-02 -6.10092029E-18  7.73063649E-18 -4.83206251E-18  2.54226540E-16
  1.00000000E+00 -2.79760440E-18 -1.64218054E-17 -2.01552828E-17  1.43490231E-01
  1.56115601E-17 -1.26350124E-17 -1.50859258E-17  2.77522883E-01  1.16850178E-17
 -2.92114733E-17  1.41691699E-17 -2.07644888E-17  3.14911724E-01  2.83272952E-17
 -2.43919343E-01 -3.87184042E-18 -8.10731759E-18 -6.10092029E-18  1.10596880E-02
  4.73364962E-34  1.96595361E-32  0.00000000E+00  0.00000000E+00  1.00000000E+00
  3.53885573E-02  2.07729156E-01  2.54956125E-01  1.56115601E-17 -5.39896522E-02
  1.59827766E-01  1.90830823E-01  1.16850178E-17  1.29712163E-01  3.69513251E-01
  1.02419562E-01 -1.89914626E-02  2.83272952E-17 -4.34170334E-02 -2.65852655E-18
  0.00000000E+00  0.00000000E+00 -7.73063649E-18 -4.73364962E-34  1.10596880E-02
  0.00000000E+00  0.00000000E+00 -1.08468374E-31  0.00000000E+00  1.00000000E+00
Core Hamiltonian Matrix                    R   N=         325
 -3.30460739E+01 -7.36747660E+00 -9.92460512E+00  0.00000000E+00  0.00000000E+00
 -8.53871234E+00  0.00000000E+00  0.00000000E+00  0.00000000E+00 -8.43095702E+00
  2.71825294E-02  1.84842644E-01  0.00000000E+00  0.00000000E+00 -8.49560479E+00
 -5.37196561E+00 -7.39040324E+00  0.00000000E+00  0.00000000E+00  1.74418344E-01
 -7.26728714E+00  0.00000000E+00  0.00000000E+00 -3.82259398E+00  0.00000000E+00
  0.00000000E+00  0.00000000E+00 -4.79634076E+00  0.00000000E+00  0.00000000E+00
  0.00000000E+00 -3.72446551E+00  0.00000000E+00  0.00000000E+00  0.00000000E+00
 -4.57242191E+00  3.74570346E-03  1.18218370E-01  0.00000000E+00  0.00000000E+00
 -3.78333765E+00  2.46112306E-01  0.00000000E+00  0.00000000E+00 -4.70676195E+00
 -1.10147302E+00 -4.70676964E+00  0.00000000E+00  0.00000000E+00  1.20324168E-01
 -4.84839659E+00  0.00000000E+00  0.00000000E+00  1.72573989E-01 -5.58791560E+00
 -1.10008451E+00 -4.61256939E+00  0.00000000E+00  0.00000000E+00  6.40437231E-02
 -4.68722281E+00  0.00000000E+00  0.00000000E+00  7.54588382E-02 -2.50680850E+00
 -5.28074740E+00 -1.10091755E+00 -4.66908480E+00  0.00000000E+00  0.00000000E+00
  2.25896604E-01 -4.78391897E+00  0.00000000E+00  0.00000000E+00  2.84640717E-01
 -2.58475812E+00 -2.49262741E+00 -5.44235703E+00  0.00000000E+00  0.00000000E+00
  0.00000000E+00  0.00000000E+00  0.00000000E+00  0.00000000E+00  0.00000000E+00
  0.00000000E+00  0.00000000E+00  0.00000000E+00  0.00000000E+00  0.00000000E+00
 -4.32042550E+00  0.00000000E+00  0.00000000E+00  2.08407573E-01  0.00000000E+00
  0.00000000E+00  0.00000000E+00  2.98906916E-01  0.00000000E+00  0.00000000E+00
  0.00000000E+00  0.00000000E+00  0.00000000E+00  0.00000000E+00 -4.55427435E+00
  0.00000000E+00  0.00000000E+00  0.00000000E+00  1.10926982E-01  0.00000000E+00
  0.00000000E+00  0.00000000E+00  1.30698542E-01  0.00000000E+00  0.00000000E+00
  0.00000000E+00  0.00000000E+00  0.00000000E+00  0.00000000E+00 -4.27788224E+00
 -1.12907158E+00 -2.36363484E+00  1.79493843E+00 -1.08856990E-17  1.41800024E+00
 -2.91349260E+00  2.45643443E+00 -2.06271440E-17  1.93554793E+00 -2.61374824E+00
 -1.29290150E+00 -2.11388712E+00  4.36714153E-17 -1.78442886E+00  3.38263141E-17
 -5.01597469E+00 -2.21914864E+00 -3.62902857E+00  9.02543487E-01 -4.10661019E-18
  7.80514501E-01 -4.37832912E+00  1.67662241E+00 -1.02001461E-17  1.44177754E+00
 -2.95683805E+00 -2.61539117E+00 -2.84842309E+00  3.86127411E-18 -3.84051104E-01
  2.99080463E-18 -3.56556191E+00 -4.51545676E+00 -1.47491111E+00 -2.53560331E+00
  1.45124886E+00 -3.56381383E-17  1.99137267E+00 -1.95421811E+00  2.75273436E-01
 -1.82482603E-17  1.31749356E+00 -1.01379295E+00 -1.12972260E+00 -2.11414642E+00
  6.56314305E-17 -9.90659622E-01  7.82676796E-17 -1.05559457E+00 -8.95897312E-01
 -3.41549207E+00 -3.76863795E-18  1.52564905E-17 -3.56381383E-17 -1.08010163E+00
 -2.76040255E-17  9.80524205E-18 -1.82482603E-17 -1.39353759E+00 -1.41344489E-17
  5.53979010E-17 -4.38366428E-17  3.20590728E-17  1.46522866E+00  7.82676796E-17
  1.15029461E+00  0.00000000E+00  0.00000000E+00  0.00000000E+00 -2.81898706E+00
 -1.14176479E+00 -1.94485953E+00  1.94878504E+00 -2.76040255E-17  4.44370463E-01
 -1.47957085E+00  1.26679030E+00 -1.41344489E-17 -4.05848696E-01 -2.07426226E+00
 -8.66162459E-01 -2.80274770E-01  7.82676796E-17 -1.70053963E-01  2.52073943E-17
 -7.68590073E-01 -6.51009489E-01 -4.39499030E-01  0.00000000E+00 -3.15940727E+00
 -1.12907158E+00 -2.36363484E+00 -1.79493843E+00  1.08856990E-17  1.41800024E+00
 -2.91349260E+00 -2.45643443E+00  2.06271440E-17  1.93554793E+00 -2.61374824E+00
 -1.29290150E+00 -2.11388712E+00  4.36714153E-17  1.78442886E+00 -3.38263141E-17
 -4.60701572E-01 -1.47652510E+00 -5.80392751E-01 -3.01545233E-18 -7.59776316E-02
 -5.01597469E+00 -2.21914864E+00 -3.62902857E+00 -9.02543487E-01  4.10661019E-18
  7.80514501E-01 -4.37832912E+00 -1.67662241E+00  1.02001461E-17  1.44177754E+00
 -2.95683805E+00 -2.61539117E+00 -2.84842309E+00  3.86127411E-18  3.84051104E-01
 -2.99080463E-18 -1.47652510E+00 -2.80810391E+00 -1.11137339E+00  3.07445501E-18
 -3.10438579E-01 -3.56556191E+00 -4.51545676E+00  1.47491111E+00  2.53560331E+00
  1.45124886E+00 -3.56381383E-17 -1.99137267E+00  1.95421811E+00  2.75273436E-01
 -1.82482603E-17 -1.31749356E+00  1.01379295E+00  1.12972260E+00  2.11414642E+00
 -6.56314305E-17 -9.90659622E-01  7.82676796E-17  5.80392751E-01  1.11137339E+00
  8.45398972E-01  6.74086624E-18  8.81778024E-02  1.05559457E+00  8.95897312E-01
 -3.41549207E+00  3.76863795E-18 -1.52564905E-17 -3.56381383E-17 -1.08010163E+00
  2.76040255E-17 -9.80524205E-18 -1.82482603E-17 -1.39353759E+00  1.41344489E-17
 -5.53979010E-17  4.38366428E-17 -3.20590728E-17 -1.46522866E+00  7.82676796E-17
  1.15029461E+00  3.01545233E-18 -3.07445501E-18  6.74086624E-18 -1.03726767E-01
  0.00000000E+00  0.00000000E+00  0.00000000E+00  0.00000000E+00 -2.81898706E+00
 -1.14176479E+00 -1.94485953E+00 -1.94878504E+00  2.76040255E-17  4.44370463E-01
 -1.47957085E+00 -1.26679030E+00  1.41344489E-17 -4.05848696E-01 -2.07426226E+00
 -8.66162459E-01 -2.80274770E-01  7.82676796E-17  1.70053963E-01 -2.52073943E-17
 -7.59776316E-02 -3.10438579E-01 -8.81778024E-02  0.00000000E+00 -1.31708986E-01
 -7.68590073E-01 -6.51009489E-01  4.39499030E-01  0.00000000E+00 -3.15940727E+00
Number of independent functions            I               25
Alpha MO coefficients                      R   N=         625
  9.94680596E-01  2.11367374E-02 -4.49773065E-16 -5.37476494E-17 -1.52303138E-03
  4.20946441E-03 -1.70735462E-15 -8.42567717E-17  2.23229454E-04 -3.78573838E-03
 -3.90968778E-03 -3.80146712E-03  1.42880626E-16  2.37132786E-15 -8.83665006E-17
  4.56247881E-05 -3.20856861E-04 -3.36465789E-04  3.73767387E-17 -2.35554901E-04
  4.56247881E-05 -3.20856861E-04  3.36465789E-04 -1.72201726E-16 -2.35554901E-04
  2.10631308E-01 -4.73056850E-01  7.33128667E-16 -1.15349203E-16  8.41940258E-02
 -4.22819747E-01  2.19494907E-15 -6.78942032E-17  3.25296686E-02 -6.42441546E-03
 -1.34601332E-03 -8.45817679E-03 -9.80019417E-17 -8.73865417E-17  5.22094422E-17
 -1.44546524E-01 -1.34791393E-02 -2.14066545E-02  5.50915970E-17 -1.34496593E-02
 -1.44546524E-01 -1.34791393E-02  2.14066545E-02  1.28012230E-16 -1.34496593E-02
 -2.02328944E-16  1.98565520E-16 -5.01578855E-01  3.96021593E-17  2.41777162E-15
  1.79934056E-15 -2.77320078E-01  1.92765521E-16  1.77219042E-15 -3.10948089E-16
 -7.20601156E-17 -1.83672881E-16 -3.42274024E-17  3.36979762E-02  3.03691969E-17
  2.40645157E-01  1.32403640E-01  1.11934751E-02 -1.77529998E-16  1.88265934E-02
 -2.40645157E-01 -1.32403640E-01  1.11934751E-02 -1.59335554E-17 -1.88265934E-02
 -7.30581852E-02  1.62970140E-01  2.11377791E-15  1.48448302E-16  5.53681560E-01
  3.37139310E-01 -2.17486038E-16  1.34355897E-16  3.90035818E-01  4.62009937E-04
  9.69625991E-03 -3.73128442E-02 -5.08401870E-17 -3.98770301E-17 -6.85058872E-17
 -1.45039304E-01 -9.20634109E-02 -1.50330420E-02 -2.37985254E-17  5.81105097E-03
 -1.45039304E-01 -9.20634109E-02  1.50330420E-02  4.05597168E-17  5.81105097E-03
 -2.61920045E-18 -4.42108628E-17 -1.33727388E-16  6.38703146E-01 -1.65539144E-16
  4.22572715E-16  5.03096174E-16  5.00476382E-01 -3.51494179E-16 -2.85840243E-17
 -9.23815847E-17 -2.77545470E-17 -2.21152849E-16 -7.09539078E-17 -2.75992153E-02
  2.09021700E-17  6.12382782E-18 -3.21543212E-17  2.03892756E-02  1.55281418E-17
 -1.99405144E-16 -4.03416758E-16  7.56383532E-17  2.03892756E-02 -5.91880303E-17
  1.00575545E-01 -5.53558480E-02 -2.71834752E-15 -1.53097880E-16  2.15999622E-01
 -1.42140038E+00 -4.40838987E-15  5.29527665E-17  5.12859202E-01  5.36145625E-02
  7.26307245E-02  4.20443881E-02 -1.45251157E-16  4.82769725E-16  1.71962965E-17
  5.47712256E-02  1.04525502E+00  3.75013084E-03  2.18842023E-17  1.72134342E-03
  5.47712256E-02  1.04525502E+00 -3.75013084E-03 -1.03454321E-16  1.72134342E-03
 -1.43604777E-16 -5.32939880E-15  3.30226036E-01 -2.16003380E-16  1.96332727E-15
  7.26664696E-15  8.56755128E-01 -2.08790989E-17  1.89995257E-15 -3.96132569E-15
 -2.29078559E-15 -2.71215010E-15 -2.15780962E-17 -3.72409440E-02 -7.49423498E-17
  5.44835772E-02  1.41405310E+00  1.49609228E-02  1.15396152E-16  8.39097175E-03
 -5.44835772E-02 -1.41405310E+00  1.49609228E-02  2.39243887E-16 -8.39097175E-03
 -1.29537473E-15  5.55761562E-17 -1.47367863E-01 -2.89694491E-16 -1.20226850E-14
  1.71580765E-15 -3.56679127E-01  7.68395586E-17  8.59265935E-15 -7.95540954E-15
  7.19148034E-16 -3.67699746E-15 -2.23785352E-16 -2.74124089E-01  1.09926936E-16
 -7.70544651E-01  6.22580359E-01  5.34062845E-02  2.72434563E-16  1.04930646E-01
  7.70544651E-01 -6.22580359E-01  5.34062845E-02 -2.51890289E-16 -1.04930646E-01
  4.81621063E-02 -9.12001820E-02 -4.00545334E-15 -2.37051276E-16  5.89678828E-01
  1.30217468E-01 -5.12737533E-15  4.37322556E-16 -4.44212591E-01  3.10190516E-01
 -1.30513778E-01  9.92966160E-02 -4.36658418E-16 -7.70814881E-15 -4.73665970E-16
  5.86314004E-01 -5.33089472E-01 -1.97309207E-01 -2.35519229E-16 -7.37233407E-02
  5.86314004E-01 -5.33089472E-01  1.97309207E-01 -5.13349529E-17 -7.37233407E-02
  4.66128317E-03  9.09050702E-01  1.04071920E-14 -2.33885523E-16  5.40908598E-01
 -1.63365641E+00 -2.08162657E-14  2.06806801E-16 -7.71528096E-01  2.32764698E-01
  3.65500382E-01  3.30460676E-01 -2.90466012E-16  3.39432692E-15  2.58210604E-16
 -4.39956597E-01  3.88731693E-01 -3.53628504E-04  2.92611199E-16 -3.42257494E-02
 -4.39956597E-01  3.88731693E-01  3.53628504E-04 -4.69828222E-16 -3.42257494E-02
 -2.23802986E-16 -2.55623726E-15 -1.89851822E-15  9.62613570E-01  1.14801305E-15
  7.08319296E-15  4.38864101E-15 -1.04139077E+00 -2.59498654E-15 -8.68299792E-16
 -9.45772805E-16 -1.06798224E-15  2.65021910E-16 -5.20406741E-16  1.41640635E-02
 -4.96654826E-16  1.17463980E-15  4.10198675E-16  9.72854811E-03  3.68590119E-16
 -8.76773149E-16 -4.20910504E-15  5.48553362E-16  9.72854811E-03 -5.06740588E-16
 -1.16549987E-15 -4.25664375E-15 -8.78093459E-01 -2.42113441E-15  1.15592656E-14
  1.94942703E-14  1.77258589E+00  2.62552452E-15 -1.91164859E-14 -7.29419564E-15
  7.03589996E-17 -6.54563477E-16  1.81510579E-16 -1.50370622E-01 -7.19826247E-16
  1.27939840E-01  9.64078805E-01  1.76025121E-01  2.56549593E-16  1.27846316E-01
 -1.27939840E-01 -9.64078805E-01  1.76025121E-01  3.62813137E-16 -1.27846316E-01
  8.24513254E-02  1.37725425E+00 -1.03027971E-14  1.85956128E-15 -4.24365113E-01
 -3.51661170E+00  2.29402178E-14 -2.45162587E-15  1.07947381E+00  6.02550216E-01
  2.92547524E-01  3.43669114E-01 -2.04135345E-15 -4.38208257E-15  9.39987723E-16
  3.49657874E-01  7.65698523E-01 -8.78237156E-03  4.52034540E-16  1.15446732E-01
  3.49657874E-01  7.65698523E-01  8.78237156E-03  1.02818407E-16  1.15446732E-01
 -9.65918920E-16 -6.64567252E-15  2.65125060E-16 -9.59290610E-16  1.46382429E-15
  2.23953740E-14 -4.17754103E-17  1.76428601E-15 -1.70547891E-14  1.12999062E-14
  9.04053105E-15 -2.78497734E-14  6.72058966E-01 -7.90547664E-16  4.98729401E-15
 -8.58927273E-15 -2.85570223E-15 -6.39313472E-15 -3.54353926E-01  9.93714182E-15
 -8.51473858E-15 -3.49996714E-15  7.48038771E-15  3.54353926E-01  9.42865361E-15
 -2.83452757E-02 -2.91257528E-01 -1.48059317E-15 -5.44536067E-16  4.79021322E-02
  8.36283657E-01  2.79762927E-15  6.76825258E-16 -4.89236152E-01  2.47291951E-01
  2.56780925E-01 -7.82426499E-01 -2.49406951E-14  2.35267171E-15 -7.34507339E-17
 -2.32044445E-01 -1.37556227E-01 -1.81609943E-01  1.30235751E-14  2.58173432E-01
 -2.32044445E-01 -1.37556227E-01  1.81609943E-01 -1.26704018E-14  2.58173432E-01
 -1.05800625E-16  1.20258123E-15  7.57448823E-16 -2.74492594E-02 -5.89268501E-16
 -7.84772221E-16 -2.49666742E-15 -1.94045812E-01 -4.28514112E-16  5.49728519E-16
 -8.66267540E-16  1.55407013E-16  4.01996048E-15  1.50399730E-16 -7.80000037E-01
 -1.54378802E-15 -8.74608415E-16 -4.59048490E-16  3.03940288E-01 -2.87190065E-16
 -9.24990329E-16  2.35929283E-15 -1.27933093E-16  3.03940288E-01 -3.81468023E-17
  5.38019510E-02  5.60401508E-01  2.84232922E-15  6.36077474E-16 -2.13820697E-01
 -1.41368966E+00 -7.41058170E-14 -1.09388133E-15  6.51868813E-01 -5.05270884E-01
  1.08093247E+00 -2.36712865E-02 -1.94455439E-15 -3.98746197E-14 -5.92669688E-16
  6.35605883E-01  1.01101083E-01 -1.56799915E-01 -1.76351481E-15 -1.70147494E-01
  6.35605883E-01  1.01101083E-01  1.56799915E-01  3.45619351E-15 -1.70147494E-01
  1.02439029E-14  1.00147834E-13 -4.18795155E-02 -1.17775220E-16 -3.87114087E-14
 -2.57501579E-13  5.00647671E-01  8.27058357E-17  1.17190967E-13 -8.89498321E-14
  1.92992082E-13 -1.63987675E-15  1.78337576E-16  1.05748621E-01  5.01473892E-16
  1.36205256E-01  9.52105070E-02 -4.89869836E-01  1.80002407E-17  5.77022251E-01
 -1.36205256E-01 -9.52105070E-02 -4.89869836E-01  4.24473525E-16 -5.77022251E-01
  5.35338917E-16 -2.08915185E-14 -3.57748375E-01  1.76046019E-16  1.05504991E-14
  2.21067932E-14  4.95157109E-01  5.29740263E-16 -1.03112555E-14  9.82467096E-15
 -1.07040130E-14 -1.64793595E-15  1.25002523E-15 -8.14527396E-01 -9.91940144E-16
  5.38867315E-01 -1.78224702E-01 -3.07688612E-01 -1.27571997E-16 -2.59611715E-01
 -5.38867315E-01  1.78224702E-01 -3.07688612E-01 -1.69843934E-15  2.59611715E-01
 -3.40560027E-16  4.51011015E-15 -3.32330789E-17 -2.86810232E-15 -1.48707101E-16
 -7.07287038E-15 -1.08675519E-15 -4.76312970E-14  5.34378491E-15 -3.17517287E-15
  3.42762015E-15 -4.63691518E-15  8.93984052E-01  1.95677716E-15  8.51356930E-14
  3.62442237E-15  1.01191789E-15  1.70437336E-15  7.11943215E-01 -5.15062569E-16
  6.27823552E-15  1.44477347E-15 -2.01492992E-15 -7.11943215E-01 -5.01742509E-16
 -4.91356904E-17 -2.41161443E-15  5.68907103E-16 -2.85655323E-02 -5.37763874E-16
  9.13273997E-15  2.55915779E-15 -4.09673402E-01 -4.91352423E-15  1.58771757E-15
 -2.47272813E-15  2.03615390E-15 -1.03480068E-13 -3.92194684E-15  7.42886082E-01
  1.86576156E-17 -2.94843329E-15 -1.36124804E-15  7.64614969E-01 -4.37704424E-16
 -6.37216264E-15 -2.54900135E-15  3.93225722E-15  7.64614969E-01 -1.58980004E-15
 -1.35463362E-02  1.68430572E-01 -7.72990943E-15 -6.68218047E-17 -1.45886600E-02
 -2.06120142E-01 -1.92153841E-14 -3.69591876E-16  4.76784427E-01  7.62576914E-01
  4.93744837E-02 -9.54042392E-01 -1.95871630E-15  2.27191029E-14  1.09257129E-15
  1.04898109E-01  6.47005330E-02  4.77576812E-01 -7.02603331E-16 -6.63819524E-01
  1.04898109E-01  6.47005330E-02 -4.77576812E-01  2.62693463E-15 -6.63819524E-01
  2.36932341E-01 -2.73993774E-01  4.31623049E-14 -3.48426251E-18  4.84723119E-01
 -2.69868979E+00  5.71711949E-14 -1.53272074E-15  8.03730829E-01 -4.14766205E-02
  1.14858404E+00  3.09791114E-01 -5.18672443E-16 -6.50524605E-14  1.18987378E-15
  8.09638631E-01  5.37832335E-01  7.58133193E-01  1.12673615E-15  4.88643851E-01
  8.09638631E-01  5.37832335E-01 -7.58133193E-01  3.09375491E-15  4.88643851E-01
 -4.04279857E-14  2.76662551E-14  7.54844552E-01 -2.41522821E-16  7.79394228E-15
  3.18139340E-13  1.30694271E+00  1.26277338E-15 -3.28584694E-14 -1.14272221E-13
 -1.41427842E-13 -1.36543826E-13  2.00370953E-16 -1.47997665E+00 -1.82153151E-15
  1.21945581E+00  5.06039079E-01  8.13358335E-01 -8.00146460E-16  6.84791102E-01
 -1.21945581E+00 -5.06039079E-01  8.13358335E-01 -2.80678975E-15 -6.84791102E-01
  4.06027690E-01 -1.78510797E-01  5.12877111E-14  2.73379003E-16 -4.73544222E-01
 -2.61728060E+00  9.80567749E-14  2.50455512E-16 -9.85556394E-02  1.95850321E+00
  1.15092812E+00  1.56858172E+00  2.53689583E-15 -1.05812567E-13 -1.37154921E-15
 -6.74408865E-01  2.94699312E-01 -4.73673191E-01  2.00498204E-16 -4.24878800E-01
 -6.74408865E-01  2.94699312E-01  4.73673191E-01 -2.96443707E-15 -4.24878800E-01
Alpha Orbital Energies                     R   N=          25
 -2.05607376E+01 -1.34006124E+00 -7.03082581E-01 -5.68712852E-01 -4.97124346E-01
  2.11992428E-01  3.04603574E-01  1.00394779E+00  1.08617119E+00  1.13271033E+00
  1.16889040E+00  1.29479563E+00  1.41444005E+00  1.80370407E+00  1.81738099E+00
  1.92526667E+00  2.57016500E+00  2.57606986E+00  2.80676909E+00  2.97929408E+00
  2.99008702E+00  3.37657633E+00  3.70921555E+00  3.92606105E+00  4.10848294E+00
Total SCF Density                          R   N=         325
  2.07818507E+00 -1.81045167E-01  5.01577623E-01 -6.91811095E-16 -2.22863711E-16
  5.03162696E-01 -1.80552305E-16  9.87714079E-17 -2.10551418E-16  8.15883417E-01
 -4.84640038E-02  1.00745618E-01  4.01336044E-17 -6.63342780E-17  6.27308446E-01
 -2.19005580E-01  5.10100785E-01 -1.00349626E-15  7.36983905E-16  3.02125023E-01
  5.84914345E-01 -2.32789700E-15 -2.32986707E-15  2.78195775E-01  6.20693270E-16
 -1.20702534E-15 -3.01514244E-15  1.53812852E-01 -2.18471733E-16  6.02128228E-17
 -3.27229017E-16  6.39311679E-01 -2.80920193E-17  5.70273304E-16  3.96660007E-16
  5.00953218E-01 -4.28430007E-02  9.63610556E-02 -8.13922274E-17 -3.40729105E-16
  4.37388207E-01  2.35486320E-01 -1.01054299E-15 -2.51476614E-16  3.06372337E-01
 -1.03050743E-02  6.06877881E-03  3.07868745E-16 -3.44871918E-17 -5.58650440E-04
  5.71239099E-03  1.56988001E-16 -2.69768012E-17 -5.92575409E-05  1.11636764E-04
 -9.76158854E-03  4.26860724E-03  1.14822483E-16 -1.14399235E-16  1.05225372E-02
  7.64330740E-03  4.31914171E-17 -8.90224947E-17  7.47446108E-03  5.58563446E-05
  2.22229733E-04 -5.67358748E-03 -4.32006320E-03  1.75284658E-17 -4.41719619E-17
 -4.27315439E-02 -1.80386890E-02  9.39527708E-17 -3.60182708E-17 -2.96586720E-02
  1.02982594E-04 -6.71095334E-04  2.95648049E-03  2.50385202E-16  8.21901753E-17
  3.43354826E-17 -2.82502041E-16 -7.32361274E-17  4.97967631E-17  1.89838918E-17
 -2.21363555E-16 -4.59711389E-17  1.30415693E-19 -1.83933277E-18  4.36550744E-18
  1.65368153E-31  4.67280546E-15  1.83306854E-16 -3.38043846E-02 -8.79679431E-17
  9.68516056E-17  1.88241593E-16 -1.86902508E-02 -5.80298943E-17  8.37049108E-17
 -3.78251286E-17 -2.39369324E-17 -2.59537460E-17 -2.30678838E-18  2.27110720E-03
 -1.43644593E-16 -7.30200854E-17 -2.30835521E-17 -3.52554113E-02 -5.76627759E-17
 -1.14411723E-16 -4.46140954E-17 -2.76255108E-02 -3.06803128E-17  1.51272709E-18
  4.32123836E-18  6.43295774E-18  1.22072902E-17  5.96330530E-18  1.52343337E-03
 -3.96086661E-02  8.94852239E-02 -2.41405045E-01  3.60407705E-17 -1.84951223E-01
  2.44377316E-02 -1.33471468E-01  9.43445452E-17 -1.22545128E-01  1.72288920E-03
 -2.42391125E-03  1.32685112E-02  2.66190513E-17  1.62185096E-02  1.82332756E-17
  1.99680383E-01  7.13541378E-03 -1.72679394E-02 -1.32821732E-01 -5.87965120E-18
 -1.04216375E-01 -5.06805985E-02 -7.34363756E-02  3.43212310E-17 -7.26931427E-02
  9.05521206E-05 -1.74654642E-03  7.10075275E-03  2.84765191E-18  8.92346942E-03
  1.89669593E-17  9.43269119E-02  5.23763713E-02 -7.49060177E-03  1.53390316E-02
 -1.12288209E-02 -3.96761702E-17 -2.02506362E-02  7.96302104E-03 -6.20835080E-03
 -2.89456056E-17 -1.31197026E-02  2.63707198E-04 -2.31270327E-04  1.48653177E-03
  4.86195671E-18  7.54394917E-04  2.33865114E-18  1.59365594E-02  6.30940241E-03
  1.61928861E-03  1.00934411E-16 -6.01026230E-17  1.72637377E-16  2.60453889E-02
 -2.39411409E-17 -4.50878918E-17  1.18980799E-16  2.04087018E-02 -2.92970680E-17
 -2.17846513E-18 -4.66927136E-18 -5.71930699E-19 -9.01829277E-18 -1.48582009E-17
 -1.12545601E-03 -9.36108524E-17 -4.38887280E-17 -6.95383897E-18  8.31445118E-04
 -6.98353214E-03  1.46090048E-02 -1.88860424E-02  2.61803108E-17  4.17089912E-03
  1.52898474E-02 -1.04419847E-02  2.62286726E-17  3.65790495E-03  1.79965424E-04
  1.50739655E-04 -2.04343578E-04  6.89232382E-19  1.26883620E-03 -1.87258252E-18
  1.12635770E-02  4.27817948E-03  8.22737400E-04 -7.82747893E-18  1.13831551E-03
 -3.96086661E-02  8.94852239E-02  2.41405045E-01 -2.83501450E-16 -1.84951223E-01
  2.44377316E-02  1.33471468E-01 -3.11725026E-16 -1.22545128E-01  1.72288920E-03
 -2.42391125E-03  1.32685112E-02  5.95656859E-17 -1.62185096E-02  1.16109296E-18
 -3.19599842E-02 -3.31222672E-02  5.16193705E-03  6.82922717E-17 -6.85853714E-03
  1.99680383E-01  7.13541378E-03 -1.72679394E-02  1.32821732E-01 -5.50003253E-16
 -1.04216375E-01 -5.06805985E-02  7.34363756E-02 -4.77700977E-16 -7.26931427E-02
  9.05521206E-05 -1.74654642E-03  7.10075275E-03  2.09749826E-17 -8.92346942E-03
  2.54889881E-17 -3.31222672E-02 -1.77465242E-02  3.81175005E-04  3.34332720E-17
 -5.69265853E-03  9.43269119E-02  5.23763713E-02  7.49060177E-03 -1.53390316E-02
 -1.12288209E-02  9.69960893E-17  2.02506362E-02 -7.96302104E-03 -6.20835080E-03
  8.11019319E-17  1.31197026E-02 -2.63707198E-04  2.31270327E-04 -1.48653177E-03
 -6.39445102E-18  7.54394917E-04 -3.37915406E-18 -5.16193705E-03 -3.81175005E-04
 -1.11811307E-03  7.78344314E-19  2.02026228E-05 -1.59365594E-02 -6.30940241E-03
  1.61928861E-03 -2.94677910E-16 -1.16976500E-16  1.05306599E-17  2.60453889E-02
  6.02441554E-17 -6.51214987E-17  2.93529228E-17  2.04087018E-02  2.55575711E-17
 -1.46912325E-18 -1.97873443E-18 -5.01484875E-18 -9.01829277E-18 -3.96725471E-18
 -1.12545601E-03 -5.56049712E-17 -1.47782176E-17 -8.25212940E-18  8.31445118E-04
 -2.85766071E-18 -4.92514525E-17 -2.30400464E-17  9.31193780E-18  8.31445118E-04
 -6.98353214E-03  1.46090048E-02  1.88860424E-02 -7.22448925E-17  4.17089912E-03
  1.52898474E-02  1.04419847E-02 -6.30751588E-17  3.65790495E-03  1.79965424E-04