
Running Job 1 of 1 h2o_631gss.q
qchem h2o_631gss.q_329656.0 /scratch/jgrebol/PROVA/QCHEM/ORDER/QCHEM/qc_3643902/qchem329656/ 0
/scicomp/CentOS/7.4.1708/Skylake/software/QCHEM/6.0.1/exe/qcprog.exe_s h2o_631gss.q_329656.0 /scratch/jgrebol/PROVA/QCHEM/ORDER/QCHEM/qc_3643902/qchem329656/
                  Welcome to Q-Chem
     A Quantum Leap Into The Future Of Chemistry


 Q-Chem 6.0, Q-Chem, Inc., Pleasanton, CA (2022)

 License issued to: SRG Txomin Romero Asturiano, Donostia International Physics Center

 E. Epifanovsky,  A. T. B. Gilbert,  Xintian Feng,  Joonho Lee,  Yuezhi Mao,  
 N. Mardirossian,  P. Pokhilko,  A. White,  M. Wormit,  M. P. Coons,  
 A. L. Dempwolff,  Zhengting Gan,  D. Hait,  P. R. Horn,  L. D. Jacobson,  
 I. Kaliman,  J. Kussmann,  A. W. Lange,  Ka Un Lao,  D. S. Levine,  Jie Liu,  
 S. C. McKenzie,  A. F. Morrison,  K. Nanda,  F. Plasser,  D. R. Rehn,  
 M. L. Vidal,  Zhi-Qiang You,  Ying Zhu,  B. Alam,  B. Albrecht,  
 A. Aldossary,  E. Alguire,  J. H. Andersen,  V. Athavale,  D. Barton,  
 K. Begam,  A. Behn,  N. Bellonzi,  Y. A. Bernard,  E. J. Berquist,  
 H. Burton,  A. Carreras,  K. Carter-Fenk,  Romit Chakraborty,  
 Chandrima Chakravarty,  Junhan Chen,  A. D. Chien,  K. D. Closser,  
 V. Cofer-Shabica,  L. Cunha,  S. Dasgupta,  Jia Deng,  M. de Wergifosse,  
 M. Diedenhofen,  Hainam Do,  S. Ehlert,  Po-Tung Fang,  S. Fatehi,  
 Qingguo Feng,  T. Friedhoff,  B. Ganoe,  J. Gayvert,  Qinghui Ge,  
 G. Gidofalvi,  M. Goldey,  J. Gomes,  C. Gonzalez-Espinoza,  S. Gulania,  
 A. Gunina,  J. A. Gyamfi,  M. W. D. Hanson-Heine,  P. H. P. Harbach,  
 A. W. Hauser,  M. F. Herbst,  M. Hernandez Vera,  M. Hodecker,  
 Z. C. Holden,  S. Houck,  Xunkun Huang,  Kerwin Hui,  B. C. Huynh,  
 K. Ikeda,  M. Ivanov,  Hyunjun Ji,  Zuxin Jin,  Hanjie Jiang,  B. Kaduk,  
 S. Kaehler,  R. Kang,  K. Khistyaev,  Jaehoon Kim,  Yongbin Kim,  
 P. Klunzinger,  Z. Koczor-Benda,  Joong Hoon Koh,  D. Kosenkov,  
 Saikiran Kotaru,  L. Koulias,  T. Kowalczyk,  C. M. Krauter,  K. Kue,  
 A. Kunitsa,  T. Kus,  A. Landau,  K. V. Lawler,  D. Lefrancois,  S. Lehtola,  
 Rain Li,  Shaozhi Li,  Yi-Pei Li,  Jiashu Liang,  M. Liebenthal,  
 Hung-Hsuan Lin,  You-Sheng Lin,  Fenglai Liu,  Kuan-Yu Liu,  
 M. Loipersberger,  A. Luenser,  C. Malbon,  A. Manjanath,  P. Manohar,  
 E. Mansoor,  S. F. Manzer,  Shan-Ping Mao,  A. V. Marenich,  T. Markovich,  
 S. Mason,  F. Matz,  S. A. Maurer,  P. F. McLaughlin,  M. F. S. J. Menger,  
 J.-M. Mewes,  S. A. Mewes,  P. Morgante,  Mohammad Mostafanejad,  
 J. W. Mullinax,  K. J. Oosterbaan,  G. Paran,  V. Parravicini,  
 Alexander C. Paul,  Suranjan K. Paul,  F. Pavosevic,  Zheng Pei,  S. Prager,  
 E. I. Proynov,  E. Ramos,  B. Rana,  A. E. Rask,  A. Rettig,  R. M. Richard,  
 F. Rob,  E. Rossomme,  T. Scheele,  M. Scheurer,  M. Schneider,  
 P. E. Schneider,  N. Sergueev,  S. M. Sharada,  Hengyuan Shen,  
 W. Skomorowski,  D. W. Small,  C. J. Stein,  Yingli Su,  Yu-Chuan Su,  
 E. J. Sundstrom,  Zhen Tao,  J. Thirman,  Hung-Yi Tsai,  T. Tsuchimochi,  
 N. M. Tubman,  C. Utku,  S. P. Veccham,  O. Vydrov,  J. Wenzel,  
 Jonathan Wong,  J. Witte,  A. Yamada,  Chou-Hsun Yang,  Kun Yao,  
 S. Yeganeh,  S. R. Yost,  A. Zech,  F. Zeller,  Igor Ying Zhang,  
 Xing Zhang,  Yu Zhang,  D. Zuev,  A. Aspuru-Guzik,  A. T. Bell,  
 N. A. Besley,  K. B. Bravaya,  B. R. Brooks,  D. Casanova,  Jeng-Da Chai,  
 Hsing-Ta Chen,  S. Coriani,  C. J. Cramer,  A. E. DePrince, III,  
 R. A. DiStasio Jr.,  A. Dreuw,  B. D. Dunietz,  T. R. Furlani,  
 W. A. Goddard III,  S. Grimme,  S. Hammes-Schiffer,  T. Head-Gordon,  
 W. J. Hehre,  Chao-Ping Hsu,  T.-C. Jagau,  Yousung Jung,  A. Klamt,  
 Jing Kong,  D. S. Lambrecht,  Xiangyuan Li,  WanZhen Liang,  N. J. Mayhall,  
 C. W. McCurdy,  J. B. Neaton,  T. Neudecker,  C. Ochsenfeld,  
 J. A. Parkhill,  R. Peverati,  V. A. Rassolov,  Haisheng Ren,  Yihan Shao,  
 L. V. Slipchenko,  R. P. Steele,  J. E. Subotnik,  A. J. W. Thom,  
 A. Tkatchenko,  D. G. Truhlar,  T. Van Voorhis,  Fan Wang,  
 T. A. Wesolowski,  K. B. Whaley,  H. L. Woodcock III,  P. M. Zimmerman,  
 S. Faraji,  P. M. W. Gill,  M. Head-Gordon,  J. M. Herbert,  A. I. Krylov

 Contributors to earlier versions of Q-Chem not listed above: 
 R. D. Adamson,  B. Austin,  R. Baer,  J. Baker,  G. J. O. Beran,  
 K. Brandhorst,  S. T. Brown,  E. F. C. Byrd,  Arup K. Chakraborty,  
 G. K. L. Chan,  Chun-Min Chang,  Yunqing Chen,  C.-L. Cheng,  
 Siu Hung Chien,  D. M. Chipman,  D. L. Crittenden,  H. Dachsel,  
 R. J. Doerksen,  A. D. Dutoi,  R. G. Edgar,  J. Fosso-Tande,  
 L. Fusti-Molnar,  D. Ghosh,  A. Ghysels,  A. Golubeva-Zadorozhnaya,  
 J. Gonthier,  M. S. Gordon,  S. R. Gwaltney,  G. Hawkins,  J. E. Herr,  
 A. Heyden,  S. Hirata,  E. G. Hohenstein,  G. Kedziora,  F. J. Keil,  
 C. Kelley,  Jihan Kim,  R. A. King,  R. Z. Khaliullin,  P. P. Korambath,  
 W. Kurlancheek,  A. Laurent,  A. M. Lee,  M. S. Lee,  S. V. Levchenko,  
 Ching Yeh Lin,  D. Liotard,  E. Livshits,  R. C. Lochan,  I. Lotan,  
 L. A. Martinez-Martinez,  P. E. Maslen,  N. Nair,  D. P. O'Neill,  
 D. Neuhauser,  E. Neuscamman,  C. M. Oana,  R. Olivares-Amaya,  R. Olson,  
 T. M. Perrine,  B. Peters,  P. A. Pieniazek,  A. Prociuk,  Y. M. Rhee,  
 J. Ritchie,  M. A. Rohrdanz,  E. Rosta,  N. J. Russ,  H. F. Schaefer III,  
 M. W. Schmidt,  N. E. Schultz,  S. Sharma,  N. Shenvi,  C. D. Sherrill,  
 A. C. Simmonett,  A. Sodt,  T. Stein,  D. Stuck,  K. S. Thanthiriwatte,  
 V. Vanovschi,  L. Vogt,  Tao Wang,  A. Warshel,  M. A. Watson,  
 C. F. Williams,  Q. Wu,  X. Xu,  Jun Yang,  W. Zhang,  Yan Zhao

   Please cite Q-Chem as follows:
  "Software for the frontiers of quantum chemistry:
   An overview of developments in the Q-Chem 5 package"
   J. Chem. Phys. 155, 084801 (2021)
   https://doi.org/10.1063/5.0055522 (open access)

 Q-Chem 6.0.1 for Intel X86 EM64T Linux

 Parts of Q-Chem use Armadillo 9.900.5 (Nocturnal Misbehaviour).
 http://arma.sourceforge.net/

 Q-Chem begins on Tue Mar 31 15:10:39 2026  

 Host: 
0

     Scratch files written to /scratch/jgrebol/PROVA/QCHEM/ORDER/QCHEM/qc_3643902/qchem329656//
 Aug2322 |scratch|qcdevops|jenkins|workspace|build_RNUM 8725   
 Processing $rem in /scicomp/CentOS/7.4.1708/Skylake/software/QCHEM/6.0.1/config/preferences:
 Processing $rem in /dipc/jgrebol/.qchemrc:

 Checking the input file for inconsistencies... 	...done.

 Q-Chem warning in module forms1/BasisType.C, line 2853:

 You are not using the predefined 5D/6D in this basis set.


--------------------------------------------------------------
User input:
--------------------------------------------------------------
$molecule
0 1
O      0.000000    0.000000    0.117300
H      0.000000    0.757200   -0.469200
H      0.000000   -0.757200   -0.469200
$end

$rem
METHOD = HF
BASIS = 6-31G**
PURECART = 2
GUI = 2
PRINT_ORBITALS = TRUE
PRINT_GENERAL_BASIS = TRUE
$end
--------------------------------------------------------------
 ----------------------------------------------------------------
             Standard Nuclear Orientation (Angstroms)
    I     Atom           X                Y                Z
 ----------------------------------------------------------------
    1      O       0.0000000000     0.0000000000     0.1173000000
    2      H      -0.7572000000    -0.0000000000    -0.4692000000
    3      H       0.7572000000     0.0000000000    -0.4692000000
 ----------------------------------------------------------------
 Molecular Point Group                 C2v   NOp =  4
 Largest Abelian Subgroup              C2v   NOp =  4
 Nuclear Repulsion Energy =           9.18953376 hartrees
 There are        5 alpha and        5 beta electrons
 Requested basis set is 6-31G(d,p)
 Basis set in general basis input format:
-----------------------------------------------------------------------
$basis
O    0
S    6    1.000000
   5.48467170E+03    1.83110000E-03 
   8.25234950E+02    1.39501000E-02 
   1.88046960E+02    6.84451000E-02 
   5.29645000E+01    2.32714300E-01 
   1.68975700E+01    4.70193000E-01 
   5.79963530E+00    3.58520900E-01 
SP   3    1.000000
   1.55396160E+01   -1.10777500E-01   7.08743000E-02 
   3.59993360E+00   -1.48026300E-01   3.39752800E-01 
   1.01376180E+00    1.13076700E+00   7.27158600E-01 
SP   1    1.000000
   2.70005800E-01    1.00000000E+00   1.00000000E+00 
D    1    1.000000
   8.00000000E-01    1.00000000E+00 
****
H    0
S    3    1.000000
   1.87311370E+01    3.34946000E-02 
   2.82539370E+00    2.34726950E-01 
   6.40121700E-01    8.13757330E-01 
S    1    1.000000
   1.61277800E-01    1.00000000E+00 
P    1    1.000000
   1.10000000E+00    1.00000000E+00 
****
H    0
S    3    1.000000
   1.87311370E+01    3.34946000E-02 
   2.82539370E+00    2.34726950E-01 
   6.40121700E-01    8.13757330E-01 
S    1    1.000000
   1.61277800E-01    1.00000000E+00 
P    1    1.000000
   1.10000000E+00    1.00000000E+00 
****
$end
-----------------------------------------------------------------------
 There are 10 shells and 25 basis functions

 Total QAlloc Memory Limit   2048 MB
 Mega-Array Size       188 MB
 MEM_STATIC part       192 MB


                       Distance Matrix (Angstroms)
             O (  1)   H (  2)
   H (  2)  0.957776
   H (  3)  0.957776  1.514400
 
 A cutoff of  1.0D-09 yielded     55 shell pairs
 There are       358 function pairs
 Smallest overlap matrix eigenvalue = 2.19E-02

 Scale SEOQF with 1.000000e+00/1.000000e+00/1.000000e+00

 Standard Electronic Orientation quadrupole field applied
 Nucleus-field energy     =    -0.0000000002 hartrees
 ================ Generating on-the-fly SAD Guess ================
 Attempting to make child job directory: /scratch/jgrebol/PROVA/QCHEM/ORDER/QCHEM/qc_3643902/qchem329656//Frg1/
 Attempting to make child job directory: /scratch/jgrebol/PROVA/QCHEM/ORDER/QCHEM/qc_3643902/qchem329656//Frg2/
 Creating input file /scratch/jgrebol/PROVA/QCHEM/ORDER/QCHEM/qc_3643902/qchem329656/Frg1.input
 using default PutDataFrgm: nothing
 calling putenv with: QCSCRATCH=/scratch/jgrebol/PROVA/QCHEM/ORDER/QCHEM/qc_3643902/qchem329656/ 
 calling putenv with: BRIANQC_ENABLE=0 
 Spawning Job For Fragment 0
 Done Job For Fragment 0
 calling putenv with: QCSCRATCH=/scratch/jgrebol/PROVA/QCHEM/ORDER/QCHEM/qc_3643902 
 calling putenv with: QCTHREADS=1 
 Creating input file /scratch/jgrebol/PROVA/QCHEM/ORDER/QCHEM/qc_3643902/qchem329656/Frg2.input
 using default PutDataFrgm: nothing
 calling putenv with: QCSCRATCH=/scratch/jgrebol/PROVA/QCHEM/ORDER/QCHEM/qc_3643902/qchem329656/ 
 calling putenv with: BRIANQC_ENABLE=0 
 Spawning Job For Fragment 1
 Done Job For Fragment 1
 calling putenv with: QCSCRATCH=/scratch/jgrebol/PROVA/QCHEM/ORDER/QCHEM/qc_3643902 
 calling putenv with: QCTHREADS=1 
 Time for running child jobs:  CPU 0.00 s  wall 0.63 s
 ============= Method Specific SAD Guess Constructed =============
 Guess from on-the-fly superposition of atomic densities
 Warning: Energy on first SCF cycle will be non-variational

 -----------------------------------------------------------------------
  General SCF calculation program by
  Eric Jon Sundstrom, Paul Horn, Yuezhi Mao, Dmitri Zuev, Alec White,
  David Stuck, Shaama M.S., Shane Yost, Joonho Lee, David Small,
  Daniel Levine, Susi Lehtola, Hugh Burton, Evgeny Epifanovsky,
  Bang C. Huynh
 -----------------------------------------------------------------------
 Hartree-Fock
 A restricted SCF calculation will be
 performed using DIIS
 SCF converges when DIIS error is below 1.0e-05
 ---------------------------------------
  Cycle       Energy         DIIS error
 ---------------------------------------
    1     -75.8388974736      1.47e-01  
    2     -75.9814746937      2.61e-02  
    3     -76.0132170740      1.37e-02  
    4     -76.0229581354      1.23e-03  
    5     -76.0231135805      3.28e-04  
    6     -76.0231270352      5.37e-05  
    7     -76.0231274798      7.84e-06  Convergence criterion met
 ---------------------------------------
 SCF time:   CPU 0.14s  wall 0.00s 
 SCF   energy in the final basis set =      -76.0231274798
 Total energy in the final basis set =      -76.0231274798
 
 --------------------------------------------------------------
             Orbital Energies (a.u.) and Symmetries
 --------------------------------------------------------------
 
 Alpha MOs, Restricted
 -- Occupied --                  
-20.561  -1.340  -0.703  -0.569  -0.497
  1 A1    2 A1    1 B1    3 A1    1 B2                                         
 -- Virtual --                   
  0.212   0.305   1.004   1.086   1.133   1.169   1.295   1.414
  4 A1    2 B1    3 B1    5 A1    6 A1    2 B2    4 B1    7 A1                 
  1.804   1.817   1.925   2.570   2.576   2.807   2.979   2.990
  1 A2    8 A1    3 B2    9 A1    5 B1    6 B1    2 A2    4 B2                 
  3.377   3.709   3.926   4.108
 10 A1   11 A1    7 B1   12 A1                                                 
 
 Beta MOs, Restricted
 -- Occupied --                  
-20.561  -1.340  -0.703  -0.569  -0.497
  1 A1    2 A1    1 B1    3 A1    1 B2                                         
 -- Virtual --                   
  0.212   0.305   1.004   1.086   1.133   1.169   1.295   1.414
  4 A1    2 B1    3 B1    5 A1    6 A1    2 B2    4 B1    7 A1                 
  1.804   1.817   1.925   2.570   2.576   2.807   2.979   2.990
  1 A2    8 A1    3 B2    9 A1    5 B1    6 B1    2 A2    4 B2                 
  3.377   3.709   3.926   4.108
 10 A1   11 A1    7 B1   12 A1                                                 
 --------------------------------------------------------------
 

                        RESTRICTED (RHF) MOLECULAR ORBITAL COEFFICIENTS
                         1         2         3         4         5         6
 eigenvalues:        -20.561    -1.340    -0.703    -0.569    -0.497     0.212
   1  O     s        0.99468   0.21063  -0.00000  -0.07306  -0.00000   0.10058
   2  O     s        0.02114  -0.47306   0.00000   0.16297  -0.00000  -0.05536
   3  O     px      -0.00000   0.00000  -0.50158   0.00000  -0.00000  -0.00000
   4  O     py      -0.00000  -0.00000   0.00000   0.00000   0.63870  -0.00000
   5  O     pz      -0.00152   0.08419   0.00000   0.55368  -0.00000   0.21600
   6  O     s        0.00421  -0.42282   0.00000   0.33714   0.00000  -1.42140
   7  O     px      -0.00000   0.00000  -0.27732  -0.00000   0.00000  -0.00000
   8  O     py      -0.00000  -0.00000   0.00000   0.00000   0.50048   0.00000
   9  O     pz       0.00022   0.03253   0.00000   0.39004  -0.00000   0.51286
  10  O     dxx     -0.00379  -0.00642  -0.00000   0.00046  -0.00000   0.05361
  11  O     dxy      0.00000  -0.00000  -0.00000  -0.00000  -0.00000  -0.00000
  12  O     dyy     -0.00391  -0.00135  -0.00000   0.00970  -0.00000   0.07263
  13  O     dxz      0.00000  -0.00000   0.03370  -0.00000  -0.00000   0.00000
  14  O     dyz     -0.00000   0.00000   0.00000  -0.00000  -0.02760   0.00000
  15  O     dzz     -0.00380  -0.00846  -0.00000  -0.03731  -0.00000   0.04204
  16  H 1   s        0.00005  -0.14455   0.24065  -0.14504   0.00000   0.05477
  17  H 1   s       -0.00032  -0.01348   0.13240  -0.09206   0.00000   1.04526
  18  H 1   px      -0.00034  -0.02141   0.01119  -0.01503  -0.00000   0.00375
  19  H 1   py       0.00000   0.00000  -0.00000  -0.00000   0.02039   0.00000
  20  H 1   pz      -0.00024  -0.01345   0.01883   0.00581   0.00000   0.00172
  21  H 2   s        0.00005  -0.14455  -0.24065  -0.14504  -0.00000   0.05477
  22  H 2   s       -0.00032  -0.01348  -0.13240  -0.09206  -0.00000   1.04526
  23  H 2   px       0.00034   0.02141   0.01119   0.01503   0.00000  -0.00375
  24  H 2   py      -0.00000   0.00000  -0.00000   0.00000   0.02039  -0.00000
  25  H 2   pz      -0.00024  -0.01345  -0.01883   0.00581  -0.00000   0.00172
                         7         8         9        10
 eigenvalues:          0.305     1.004     1.086     1.133
   1  O     s       -0.00000  -0.00000   0.04816   0.00466
   2  O     s       -0.00000   0.00000  -0.09120   0.90905
   3  O     px       0.33023  -0.14737  -0.00000   0.00000
   4  O     py      -0.00000  -0.00000  -0.00000  -0.00000
   5  O     pz       0.00000  -0.00000   0.58968   0.54091
   6  O     s        0.00000   0.00000   0.13022  -1.63366
   7  O     px       0.85676  -0.35668  -0.00000  -0.00000
   8  O     py      -0.00000   0.00000   0.00000   0.00000
   9  O     pz       0.00000   0.00000  -0.44421  -0.77153
  10  O     dxx     -0.00000  -0.00000   0.31019   0.23276
  11  O     dxy     -0.00000  -0.00000  -0.00000  -0.00000
  12  O     dyy     -0.00000   0.00000  -0.13051   0.36550
  13  O     dxz     -0.03724  -0.27412  -0.00000   0.00000
  14  O     dyz     -0.00000   0.00000  -0.00000   0.00000
  15  O     dzz     -0.00000  -0.00000   0.09930   0.33046
  16  H 1   s        0.05448  -0.77054   0.58631  -0.43996
  17  H 1   s        1.41405   0.62258  -0.53309   0.38873
  18  H 1   px       0.01496   0.05341  -0.19731  -0.00035
  19  H 1   py       0.00000   0.00000  -0.00000   0.00000
  20  H 1   pz       0.00839   0.10493  -0.07372  -0.03423
  21  H 2   s       -0.05448   0.77054   0.58631  -0.43996
  22  H 2   s       -1.41405  -0.62258  -0.53309   0.38873
  23  H 2   px       0.01496   0.05341   0.19731   0.00035
  24  H 2   py       0.00000  -0.00000  -0.00000  -0.00000
  25  H 2   pz      -0.00839  -0.10493  -0.07372  -0.03423
 
          Ground-State Mulliken Net Atomic Charges

     Atom                 Charge (a.u.)
  ----------------------------------------
      1 O                    -0.673721
      2 H                     0.336861
      3 H                     0.336861
  ----------------------------------------
  Sum of atomic charges =     0.000000

 -----------------------------------------------------------------
                    Cartesian Multipole Moments
 -----------------------------------------------------------------
    Charge (ESU x 10^10)
                -0.0000
    Dipole Moment (Debye)
         X       0.0000      Y       0.0000      Z      -2.1856
       Tot       2.1856
    Quadrupole Moments (Debye-Ang)
        XX      -4.1216     XY      -0.0000     YY      -7.1672
        XZ       0.0000     YZ      -0.0000     ZZ      -5.9485
    Octopole Moments (Debye-Ang^2)
       XXX       0.0000    XXY       0.0000    XYY       0.0000
       YYY       0.0000    XXZ      -1.3813    XYZ      -0.0000
       YYZ      -0.3512    XZZ       0.0000    YZZ       0.0000
       ZZZ      -1.3804
    Hexadecapole Moments (Debye-Ang^3)
      XXXX      -5.5508   XXXY      -0.0000   XXYY      -2.0630
      XYYY      -0.0000   YYYY      -5.1305   XXXZ       0.0000
      XXYZ      -0.0000   XYYZ       0.0000   YYYZ       0.0000
      XXZZ      -1.5760   XYZZ      -0.0000   YYZZ      -1.9230
      XZZZ       0.0000   YZZZ      -0.0000   ZZZZ      -6.0743
 -----------------------------------------------------------------
 Total job time:  1.04s(wall), 0.21s(cpu) 
 Tue Mar 31 15:10:40 2026

        *************************************************************
        *                                                           *
        *  Thank you very much for using Q-Chem.  Have a nice day.  *
        *                                                           *
        *************************************************************


