Jobname.Temp
SP        R                             STO-3G              
Number of atoms                            I                3
Charge                                     I                0
Multiplicity                               I                1
Number of electrons                        I               10
Number of alpha electrons                  I                5
Number of beta electrons                   I                5
Atomic numbers                             I   N=           3
           8           1           1
Current cartesian coordinates              R   N=           9
  0.00000000E+00  0.00000000E+00  2.21664874E-01 -1.43090062E+00 -8.76173933E-17
 -8.86659498E-01  1.43090062E+00  8.76173933E-17 -8.86659498E-01
Nuclear charges                            R   N=           3
  8.00000000E+00  1.00000000E+00  1.00000000E+00
Number of basis functions                  I                7
Number of contracted shells                I                4
Number of primitive shells                 I               12
Highest angular momentum                   I                1
Largest degree of contraction              I                3
Shell types                                I   N=           4
           0          -1           0           0
Number of primitives per shell             I   N=           4
           3           3           3           3
Shell to atom map                          I   N=           4
           1           1           2           3
Primitive exponents                        R   N=          12
  1.30709320E+02  2.38088610E+01  6.44360830E+00  5.03315130E+00  1.16959610E+00
  3.80389000E-01  3.42525091E+00  6.23913730E-01  1.68855400E-01  3.42525091E+00
  6.23913730E-01  1.68855400E-01
Contraction coefficients                   R   N=          12
  1.54328969E-01  5.35328136E-01  4.44634536E-01 -9.99672287E-02  3.99512825E-01
  7.00115461E-01  1.54328971E-01  5.35328142E-01  4.44634542E-01  1.54328971E-01
  5.35328142E-01  4.44634542E-01
P(S=P) Contraction coefficients            R   N=          12
  0.00000000E+00  0.00000000E+00  0.00000000E+00  1.55916268E-01  6.07683714E-01
  3.91957386E-01  0.00000000E+00  0.00000000E+00  0.00000000E+00  0.00000000E+00
  0.00000000E+00  0.00000000E+00
Coordinates of each shell                  R   N=          12
  0.00000000E+00  0.00000000E+00  2.21664874E-01  0.00000000E+00  0.00000000E+00
  2.21664874E-01 -1.43090062E+00 -8.76173933E-17 -8.86659498E-01  1.43090062E+00
  8.76173933E-17 -8.86659498E-01
Overlap Matrix                             R   N=          28
  1.00000000E+00  2.36703937E-01  1.00000000E+00  0.00000000E+00  0.00000000E+00
  1.00000000E+00  0.00000000E+00  0.00000000E+00  0.00000000E+00  1.00000000E+00
 -8.91639803E-19  3.40695831E-17  0.00000000E+00  0.00000000E+00  1.00000000E+00
  5.39039484E-02  4.74428980E-01 -3.10897646E-01 -1.90369903E-17 -2.40810181E-01
  1.00000000E+00  5.39039484E-02  4.74428980E-01  3.10897646E-01  1.90369903E-17
 -2.40810181E-01  2.51536177E-01  1.00000000E+00
Core Hamiltonian Matrix                    R   N=          28
 -3.27202679E+01 -7.61265130E+00 -9.33422413E+00  0.00000000E+00  0.00000000E+00
 -7.61320572E+00  0.00000000E+00  0.00000000E+00  0.00000000E+00 -7.45717010E+00
  1.89890698E-02  2.23405557E-01  0.00000000E+00  0.00000000E+00 -7.55078362E+00
 -1.74715273E+00 -3.73771269E+00  2.02826144E+00 -1.37401673E-17  1.64393941E+00
 -5.07439802E+00 -1.74715273E+00 -3.73771269E+00 -2.02826144E+00  1.37401673E-17
  1.64393941E+00 -1.60656110E+00 -5.07439802E+00
Number of independent functions            I                7
Alpha MO coefficients                      R   N=          49
 -9.94130945E-01 -2.65496075E-02  3.79218570E-17 -1.23484799E-16  4.34204496E-03
  5.96530581E-03  5.96530581E-03 -2.32804916E-01  8.33693978E-01 -1.77175361E-15
  1.17586029E-16 -1.29441445E-01  1.58675412E-01  1.58675412E-01  2.53628242E-15
 -1.18505812E-14 -6.06478132E-01  3.41729903E-16 -1.44656641E-14  4.45063026E-01
 -4.45063026E-01  1.03171864E-01 -5.36797416E-01  1.05226934E-14 -7.28588200E-16
 -7.76491854E-01  2.78102417E-01  2.78102417E-01 -2.76144707E-18  3.32985474E-16
 -2.64042536E-16 -1.00000000E+00  4.39575266E-16 -2.27897987E-17 -2.32540327E-16
 -1.32292006E-01  8.83661588E-01 -3.53795876E-15  3.36755297E-17 -7.42499188E-01
 -7.96697918E-01 -7.96697918E-01 -2.65203366E-16  2.03810275E-15  9.90154264E-01
  6.66942974E-17 -3.24492786E-15  8.38199136E-01 -8.38199136E-01
Alpha Orbital Energies                     R   N=           7
 -2.02418613E+01 -1.26816074E+00 -6.17562140E-01 -4.53020696E-01 -3.91236296E-01
  6.05170415E-01  7.41595574E-01
Total SCF Density                          R   N=          28
  2.10627780E+00 -4.46153320E-01  1.96780400E+00 -1.55560533E-16  1.20913132E-16
  7.35631449E-01  4.59541970E-17  3.18856054E-16  1.13581646E-16  2.00000000E+00
 -1.08588137E-01  6.17577977E-01  1.66365241E-15  2.20821710E-16  1.23942708E+00
 -2.83567326E-02 -3.43125998E-02 -5.39841986E-01 -1.96392177E-17 -4.72915069E-01
  6.01271046E-01 -2.83567326E-02 -3.43125998E-02  5.39841986E-01 -2.08503541E-16
 -4.72915069E-01 -1.91053344E-01  6.01271046E-01
Pure Switching                             I                1
Dipole_Data                                R   N=           3
 -9.98858188E-15 -6.97537158E-16 -1.72530839E+00
Quadrupole_Data                            R   N=           6
 -4.35854657E+00  5.18966747E-17 -6.09486971E+00  2.80539649E-15 -3.26375551E-16
 -5.39324196E+00
Octapole_Data                              R   N=          10
 -1.18712979E-14 -3.47788906E-17 -1.76425558E-15 -1.87891147E-16 -5.50429482E-01
 -6.40199540E-17 -2.90608534E-03 -4.21517565E-15 -1.12890977E-16 -2.00561752E-01
Hexadecapole_Data                          R   N=          15
 -6.50065270E+00 -6.28063971E-17 -1.77416837E+00 -1.30372426E-16 -3.23146886E+00
  4.72473712E-15 -4.30800739E-17  6.61922681E-16 -1.14782198E-16 -1.68560731E+00
 -1.85078150E-17 -1.38633685E+00  3.03838221E-15 -1.24974000E-16 -4.87608304E+00
