Automatically generated file for job tests/FCHK/GAUSSIAN/13_anthracene
SP        Restricted  sto-3g
Number of atoms                            I               24
Charge                                     I                0
Number of electrons                        I               94
Multiplicity                               I                1
Number of contracted shells                I               52
Number of basis functions                  I               80
Number of independent functions            I               80
Number of alpha electrons                  I               47
Number of beta electrons                   I               47
Number of basis functions                  I               80
Number of independent functions            I               80
Atomic numbers                             I   N=          24
           6           6           6           6           6           6
           6           6           6           6           6           6
           6           6           1           1           1           1
           1           1           1           1           1           1
Nuclear charges                            R   N=          24
  6.00000000E+00  6.00000000E+00  6.00000000E+00  6.00000000E+00  6.00000000E+00
  6.00000000E+00  6.00000000E+00  6.00000000E+00  6.00000000E+00  6.00000000E+00
  6.00000000E+00  6.00000000E+00  6.00000000E+00  6.00000000E+00  1.00000000E+00
  1.00000000E+00  1.00000000E+00  1.00000000E+00  1.00000000E+00  1.00000000E+00
  1.00000000E+00  1.00000000E+00  1.00000000E+00  1.00000000E+00
Current cartesian coordinates              R   N=          72
  0.00000000E+00  4.69294586E+00  2.66262411E+00  0.00000000E+00  6.92849186E+00
  1.34964240E+00  0.00000000E+00  6.92849186E+00 -1.34964240E+00  0.00000000E+00
  4.69294586E+00 -2.66262411E+00  0.00000000E+00 -4.69294586E+00 -2.66262411E+00
  0.00000000E+00 -6.92849186E+00 -1.34964240E+00  0.00000000E+00 -6.92849186E+00
  1.34964240E+00  0.00000000E+00 -4.69294586E+00  2.66262411E+00  0.00000000E+00
  0.00000000E+00  2.65619904E+00  0.00000000E+00  0.00000000E+00 -2.65619904E+00
  0.00000000E+00  2.31642628E+00  1.36683891E+00  0.00000000E+00  2.31642628E+00
 -1.36683891E+00  0.00000000E+00 -2.31642628E+00 -1.36683891E+00  0.00000000E+00
 -2.31642628E+00  1.36683891E+00  0.00000000E+00  4.68935538E+00  4.72828374E+00
  0.00000000E+00  8.72637730E+00  2.36385841E+00  0.00000000E+00  8.72637730E+00
 -2.36385841E+00  0.00000000E+00  4.68935538E+00 -4.72828374E+00  0.00000000E+00
 -4.68935538E+00 -4.72828374E+00  0.00000000E+00 -8.72637730E+00 -2.36385841E+00
  0.00000000E+00 -8.72637730E+00  2.36385841E+00  0.00000000E+00 -4.68935538E+00
  4.72828374E+00  0.00000000E+00  0.00000000E+00  4.72318148E+00  0.00000000E+00
  0.00000000E+00 -4.72318148E+00
Force Field
Int Atom Types
MM charges
Atom fragment info
Atom residue num
Nuclear spins
Nuclear QMom
Nuclear GFac
MicOpt
SymInf integers
RotTr to input orientation
Nuclear ZEff
Nuclear ZNuc
Integer atomic weights
Real atomic weights
Number of contracted shells                I               52
Number of primitive shells                 I              156
Pure/Cartesian d shells                    I                1
Pure/Cartesian f shells                    I                1
Highest angular momentum                   I                1
Largest degree of contraction              I                3
Shell types                                I   N=          52
           0           0           1           0           0           1
           0           0           1           0           0           1
           0           0           1           0           0           1
           0           0           1           0           0           1
           0           0           1           0           0           1
           0           0           1           0           0           1
           0           0           1           0           0           1
           0           0           0           0           0           0
           0           0           0           0
Number of primitives per shell             I   N=          52
           3           3           3           3           3           3
           3           3           3           3           3           3
           3           3           3           3           3           3
           3           3           3           3           3           3
           3           3           3           3           3           3
           3           3           3           3           3           3
           3           3           3           3           3           3
           3           3           3           3           3           3
           3           3           3           3
Shell to atom map                          I   N=          52
           1           1           1           2           2           2
           3           3           3           4           4           4
           5           5           5           6           6           6
           7           7           7           8           8           8
           9           9           9          10          10          10
          11          11          11          12          12          12
          13          13          13          14          14          14
          15          16          17          18          19          20
          21          22          23          24
Primitive exponents                        R   N=         156
  7.16168370E+01  1.30450960E+01  3.53051220E+00  2.94124940E+00  6.83483100E-01
  2.22289900E-01  2.94124940E+00  6.83483100E-01  2.22289900E-01  7.16168370E+01
  1.30450960E+01  3.53051220E+00  2.94124940E+00  6.83483100E-01  2.22289900E-01
  2.94124940E+00  6.83483100E-01  2.22289900E-01  7.16168370E+01  1.30450960E+01
  3.53051220E+00  2.94124940E+00  6.83483100E-01  2.22289900E-01  2.94124940E+00
  6.83483100E-01  2.22289900E-01  7.16168370E+01  1.30450960E+01  3.53051220E+00
  2.94124940E+00  6.83483100E-01  2.22289900E-01  2.94124940E+00  6.83483100E-01
  2.22289900E-01  7.16168370E+01  1.30450960E+01  3.53051220E+00  2.94124940E+00
  6.83483100E-01  2.22289900E-01  2.94124940E+00  6.83483100E-01  2.22289900E-01
  7.16168370E+01  1.30450960E+01  3.53051220E+00  2.94124940E+00  6.83483100E-01
  2.22289900E-01  2.94124940E+00  6.83483100E-01  2.22289900E-01  7.16168370E+01
  1.30450960E+01  3.53051220E+00  2.94124940E+00  6.83483100E-01  2.22289900E-01
  2.94124940E+00  6.83483100E-01  2.22289900E-01  7.16168370E+01  1.30450960E+01
  3.53051220E+00  2.94124940E+00  6.83483100E-01  2.22289900E-01  2.94124940E+00
  6.83483100E-01  2.22289900E-01  7.16168370E+01  1.30450960E+01  3.53051220E+00
  2.94124940E+00  6.83483100E-01  2.22289900E-01  2.94124940E+00  6.83483100E-01
  2.22289900E-01  7.16168370E+01  1.30450960E+01  3.53051220E+00  2.94124940E+00
  6.83483100E-01  2.22289900E-01  2.94124940E+00  6.83483100E-01  2.22289900E-01
  7.16168370E+01  1.30450960E+01  3.53051220E+00  2.94124940E+00  6.83483100E-01
  2.22289900E-01  2.94124940E+00  6.83483100E-01  2.22289900E-01  7.16168370E+01
  1.30450960E+01  3.53051220E+00  2.94124940E+00  6.83483100E-01  2.22289900E-01
  2.94124940E+00  6.83483100E-01  2.22289900E-01  7.16168370E+01  1.30450960E+01
  3.53051220E+00  2.94124940E+00  6.83483100E-01  2.22289900E-01  2.94124940E+00
  6.83483100E-01  2.22289900E-01  7.16168370E+01  1.30450960E+01  3.53051220E+00
  2.94124940E+00  6.83483100E-01  2.22289900E-01  2.94124940E+00  6.83483100E-01
  2.22289900E-01  3.42525091E+00  6.23913730E-01  1.68855400E-01  3.42525091E+00
  6.23913730E-01  1.68855400E-01  3.42525091E+00  6.23913730E-01  1.68855400E-01
  3.42525091E+00  6.23913730E-01  1.68855400E-01  3.42525091E+00  6.23913730E-01
  1.68855400E-01  3.42525091E+00  6.23913730E-01  1.68855400E-01  3.42525091E+00
  6.23913730E-01  1.68855400E-01  3.42525091E+00  6.23913730E-01  1.68855400E-01
  3.42525091E+00  6.23913730E-01  1.68855400E-01  3.42525091E+00  6.23913730E-01
  1.68855400E-01
Contraction coefficients                   R   N=         156
  1.54328970E-01  5.35328140E-01  4.44634540E-01 -9.99672301E-02  3.99512830E-01
  7.00115471E-01  1.55916272E-01  6.07683728E-01  3.91957395E-01  1.54328970E-01
  5.35328140E-01  4.44634540E-01 -9.99672301E-02  3.99512830E-01  7.00115471E-01
  1.55916272E-01  6.07683728E-01  3.91957395E-01  1.54328970E-01  5.35328140E-01
  4.44634540E-01 -9.99672301E-02  3.99512830E-01  7.00115471E-01  1.55916272E-01
  6.07683728E-01  3.91957395E-01  1.54328970E-01  5.35328140E-01  4.44634540E-01
 -9.99672301E-02  3.99512830E-01  7.00115471E-01  1.55916272E-01  6.07683728E-01
  3.91957395E-01  1.54328970E-01  5.35328140E-01  4.44634540E-01 -9.99672301E-02
  3.99512830E-01  7.00115471E-01  1.55916272E-01  6.07683728E-01  3.91957395E-01
  1.54328970E-01  5.35328140E-01  4.44634540E-01 -9.99672301E-02  3.99512830E-01
  7.00115471E-01  1.55916272E-01  6.07683728E-01  3.91957395E-01  1.54328970E-01
  5.35328140E-01  4.44634540E-01 -9.99672301E-02  3.99512830E-01  7.00115471E-01
  1.55916272E-01  6.07683728E-01  3.91957395E-01  1.54328970E-01  5.35328140E-01
  4.44634540E-01 -9.99672301E-02  3.99512830E-01  7.00115471E-01  1.55916272E-01
  6.07683728E-01  3.91957395E-01  1.54328970E-01  5.35328140E-01  4.44634540E-01
 -9.99672301E-02  3.99512830E-01  7.00115471E-01  1.55916272E-01  6.07683728E-01
  3.91957395E-01  1.54328970E-01  5.35328140E-01  4.44634540E-01 -9.99672301E-02
  3.99512830E-01  7.00115471E-01  1.55916272E-01  6.07683728E-01  3.91957395E-01
  1.54328970E-01  5.35328140E-01  4.44634540E-01 -9.99672301E-02  3.99512830E-01
  7.00115471E-01  1.55916272E-01  6.07683728E-01  3.91957395E-01  1.54328970E-01
  5.35328140E-01  4.44634540E-01 -9.99672301E-02  3.99512830E-01  7.00115471E-01
  1.55916272E-01  6.07683728E-01  3.91957395E-01  1.54328970E-01  5.35328140E-01
  4.44634540E-01 -9.99672301E-02  3.99512830E-01  7.00115471E-01  1.55916272E-01
  6.07683728E-01  3.91957395E-01  1.54328970E-01  5.35328140E-01  4.44634540E-01
 -9.99672301E-02  3.99512830E-01  7.00115471E-01  1.55916272E-01  6.07683728E-01
  3.91957395E-01  1.54328971E-01  5.35328142E-01  4.44634542E-01  1.54328971E-01
  5.35328142E-01  4.44634542E-01  1.54328971E-01  5.35328142E-01  4.44634542E-01
  1.54328971E-01  5.35328142E-01  4.44634542E-01  1.54328971E-01  5.35328142E-01
  4.44634542E-01  1.54328971E-01  5.35328142E-01  4.44634542E-01  1.54328971E-01
  5.35328142E-01  4.44634542E-01  1.54328971E-01  5.35328142E-01  4.44634542E-01
  1.54328971E-01  5.35328142E-01  4.44634542E-01  1.54328971E-01  5.35328142E-01
  4.44634542E-01
Coordinates of each shell                  R   N=         156
  0.00000000E+00  4.69294586E+00  2.66262411E+00  0.00000000E+00  4.69294586E+00
  2.66262411E+00  0.00000000E+00  4.69294586E+00  2.66262411E+00  0.00000000E+00
  6.92849186E+00  1.34964240E+00  0.00000000E+00  6.92849186E+00  1.34964240E+00
  0.00000000E+00  6.92849186E+00  1.34964240E+00  0.00000000E+00  6.92849186E+00
 -1.34964240E+00  0.00000000E+00  6.92849186E+00 -1.34964240E+00  0.00000000E+00
  6.92849186E+00 -1.34964240E+00  0.00000000E+00  4.69294586E+00 -2.66262411E+00
  0.00000000E+00  4.69294586E+00 -2.66262411E+00  0.00000000E+00  4.69294586E+00
 -2.66262411E+00  0.00000000E+00 -4.69294586E+00 -2.66262411E+00  0.00000000E+00
 -4.69294586E+00 -2.66262411E+00  0.00000000E+00 -4.69294586E+00 -2.66262411E+00
  0.00000000E+00 -6.92849186E+00 -1.34964240E+00  0.00000000E+00 -6.92849186E+00
 -1.34964240E+00  0.00000000E+00 -6.92849186E+00 -1.34964240E+00  0.00000000E+00
 -6.92849186E+00  1.34964240E+00  0.00000000E+00 -6.92849186E+00  1.34964240E+00
  0.00000000E+00 -6.92849186E+00  1.34964240E+00  0.00000000E+00 -4.69294586E+00
  2.66262411E+00  0.00000000E+00 -4.69294586E+00  2.66262411E+00  0.00000000E+00
 -4.69294586E+00  2.66262411E+00  0.00000000E+00  0.00000000E+00  2.65619904E+00
  0.00000000E+00  0.00000000E+00  2.65619904E+00  0.00000000E+00  0.00000000E+00
  2.65619904E+00  0.00000000E+00  0.00000000E+00 -2.65619904E+00  0.00000000E+00
  0.00000000E+00 -2.65619904E+00  0.00000000E+00  0.00000000E+00 -2.65619904E+00
  0.00000000E+00  2.31642628E+00  1.36683891E+00  0.00000000E+00  2.31642628E+00
  1.36683891E+00  0.00000000E+00  2.31642628E+00  1.36683891E+00  0.00000000E+00
  2.31642628E+00 -1.36683891E+00  0.00000000E+00  2.31642628E+00 -1.36683891E+00
  0.00000000E+00  2.31642628E+00 -1.36683891E+00  0.00000000E+00 -2.31642628E+00
 -1.36683891E+00  0.00000000E+00 -2.31642628E+00 -1.36683891E+00  0.00000000E+00
 -2.31642628E+00 -1.36683891E+00  0.00000000E+00 -2.31642628E+00  1.36683891E+00
  0.00000000E+00 -2.31642628E+00  1.36683891E+00  0.00000000E+00 -2.31642628E+00
  1.36683891E+00  0.00000000E+00  4.68935538E+00  4.72828374E+00  0.00000000E+00
  8.72637730E+00  2.36385841E+00  0.00000000E+00  8.72637730E+00 -2.36385841E+00
  0.00000000E+00  4.68935538E+00 -4.72828374E+00  0.00000000E+00 -4.68935538E+00
 -4.72828374E+00  0.00000000E+00 -8.72637730E+00 -2.36385841E+00  0.00000000E+00
 -8.72637730E+00  2.36385841E+00  0.00000000E+00 -4.68935538E+00  4.72828374E+00
  0.00000000E+00  0.00000000E+00  4.72318148E+00  0.00000000E+00  0.00000000E+00
 -4.72318148E+00
Constraint Structure                       R   N=          72
Num ILSW                                   I                0
ILSW                                       I   N=           0
Num RLSW                                   I                0
RLSW                                       R   N=           0
MxBond                                     I                0
NBond                                      I   N=           0
IBond                                      I   N=           0
RBond                                      R   N=           0
SCF Energy                                 R     -5.294661842420677E+02
Total Energy                               R     -5.294661842420677E+02
S**2                                       R      0.000000000000000E+00
Virial Ratio                               R      2.009094944625748E+00
RMS Density                                R      0.000000000000000E+00
Job Status                                 I                1
External E-field                           R   N=          35
  0.00000000E+00  0.00000000E+00  0.00000000E+00  0.00000000E+00  0.00000000E+00
  0.00000000E+00  0.00000000E+00  0.00000000E+00  0.00000000E+00  0.00000000E+00
  0.00000000E+00  0.00000000E+00  0.00000000E+00  0.00000000E+00  0.00000000E+00
  0.00000000E+00  0.00000000E+00  0.00000000E+00  0.00000000E+00  0.00000000E+00
  0.00000000E+00  0.00000000E+00  0.00000000E+00  0.00000000E+00  0.00000000E+00
  0.00000000E+00  0.00000000E+00  0.00000000E+00  0.00000000E+00  0.00000000E+00
  0.00000000E+00  0.00000000E+00  0.00000000E+00  0.00000000E+00  0.00000000E+00
IOpCl                                      I                0
IROHF                                      I                0
Alpha Orbital Energies                     R   N=          80
 -1.10394706E+01 -1.10394291E+01 -1.10394062E+01 -1.10393693E+01 -1.10299759E+01
 -1.10299757E+01 -1.10299534E+01 -1.10299530E+01 -1.10288134E+01 -1.10288134E+01
 -1.10287660E+01 -1.10287652E+01 -1.10269810E+01 -1.10269018E+01 -1.11952572E+00
 -1.08111421E+00 -1.01953610E+00 -9.98720848E-01 -9.58572159E-01 -9.39446787E-01
 -8.96766792E-01 -8.14218752E-01 -7.78089203E-01 -7.55476750E-01 -7.47660707E-01
 -6.83169856E-01 -6.51265184E-01 -6.30899569E-01 -5.90276888E-01 -5.77458336E-01
 -5.69774254E-01 -5.50220245E-01 -5.32104485E-01 -5.21755443E-01 -5.00995704E-01
 -4.96176742E-01 -4.85905539E-01 -4.73102334E-01 -4.41524031E-01 -4.31871377E-01
 -4.11143506E-01 -4.00839061E-01 -3.55612276E-01 -3.50296958E-01 -2.86789589E-01
 -2.48747293E-01 -1.89127463E-01  1.63361274E-01  2.34202525E-01  2.76279848E-01
  3.54967588E-01  3.61744934E-01  4.82937219E-01  5.70148079E-01  5.77302126E-01
  5.77633465E-01  5.94562711E-01  6.36406261E-01  6.45406053E-01  6.70413580E-01
  6.96950972E-01  6.98377087E-01  7.04407797E-01  7.10230388E-01  7.29322935E-01
  7.38853077E-01  7.66589436E-01  8.18628761E-01  8.39210250E-01  8.49392797E-01
  8.67733226E-01  9.09117342E-01  9.67568040E-01  9.69741510E-01  9.80028605E-01
  9.82932966E-01  1.05840541E+00  1.10577664E+00  1.17019730E+00  1.17129393E+00
Alpha MO coefficients                      R   N=        6400
  4.32144614E-05  3.18872576E-03 -4.08204063E-17 -1.88550853E-03 -1.03424511E-03
  2.89888871E-03  2.30931577E-05  8.94802814E-18 -6.10357187E-05 -4.35200129E-05
  2.89888871E-03  2.30931577E-05  6.25189861E-17 -6.10357187E-05  4.35200129E-05
  4.32144613E-05  3.18872576E-03 -2.29040835E-17 -1.88550853E-03  1.03424511E-03
 -4.32144624E-05 -3.18872576E-03  5.26847841E-17 -1.88550853E-03 -1.03424511E-03
 -2.89888871E-03 -2.30931578E-05 -3.74033339E-18 -6.10357187E-05 -4.35200129E-05
 -2.89888871E-03 -2.30931576E-05  9.02019117E-17 -6.10357187E-05  4.35200129E-05
 -4.32144607E-05 -3.18872576E-03 -2.49412681E-17 -1.88550853E-03  1.03424511E-03
  3.30903589E-12 -2.15621163E-12 -7.18162235E-18  3.85827205E-03  6.84893142E-13
 -2.45285565E-12  1.35591433E-12  8.15549199E-18  3.85827205E-03  4.21962409E-13
 -4.96265048E-01 -1.48174315E-02 -3.75834256E-18  1.57196469E-04 -2.16422305E-03
 -4.96265048E-01 -1.48174315E-02 -2.33759683E-17  1.57196469E-04  2.16422305E-03
  4.96265048E-01  1.48174315E-02  7.40861103E-18  1.57196469E-04 -2.16422305E-03
  4.96265048E-01  1.48174315E-02  2.01946104E-17  1.57196469E-04  2.16422305E-03
 -5.77210619E-06  4.01343334E-05  4.01343334E-05 -5.77210619E-06  5.77210616E-06
 -4.01343334E-05 -4.01343334E-05  5.77210622E-06  1.81587182E-14 -2.32878385E-14
 -1.78998913E-03  3.41805313E-03 -1.99591915E-16 -1.97230014E-03 -1.03981530E-03
 -4.06730283E-04 -1.63385650E-04  3.74059643E-17  8.75289923E-05  5.00354320E-05
  4.06730286E-04  1.63385650E-04 -4.40743416E-17 -8.75289924E-05  5.00354320E-05
  1.78998913E-03 -3.41805312E-03  8.53516482E-18  1.97230014E-03 -1.03981530E-03
  1.78998913E-03 -3.41805313E-03  5.86544625E-17 -1.97230014E-03 -1.03981530E-03
  4.06730285E-04  1.63385650E-04 -6.20841443E-18  8.75289924E-05  5.00354321E-05
 -4.06730285E-04 -1.63385650E-04  3.33169325E-17 -8.75289924E-05  5.00354321E-05
 -1.78998913E-03  3.41805313E-03 -2.35544948E-17  1.97230014E-03 -1.03981530E-03
 -1.12516797E-02  6.88066885E-03 -6.73842107E-18 -8.46993741E-13 -2.16820816E-03
  1.12516797E-02 -6.88066885E-03  7.16897927E-18  2.81703923E-12 -2.16820816E-03
 -4.95778138E-01 -2.15745111E-02 -1.89927969E-18  1.79075578E-04  2.18909707E-03
  4.95778138E-01  2.15745111E-02 -1.61559121E-17 -1.79075577E-04  2.18909707E-03
  4.95778139E-01  2.15745111E-02  7.51875814E-18  1.79075578E-04  2.18909707E-03
 -4.95778139E-01 -2.15745111E-02  1.47698662E-17 -1.79075577E-04  2.18909707E-03
 -5.69659151E-05  1.10347021E-05 -1.10347021E-05  5.69659151E-05  5.69659151E-05
 -1.10347021E-05  1.10347021E-05 -5.69659151E-05 -8.13568693E-05  8.13568693E-05
 -2.13453868E-03  3.39215519E-03  8.01879245E-17 -1.94332126E-03 -1.06003534E-03
 -5.13335670E-04 -1.75524339E-04  5.51909992E-17  9.32964551E-05  4.89038797E-05
  5.13335668E-04  1.75524339E-04  1.51192724E-16 -9.32964551E-05  4.89038797E-05
  2.13453868E-03 -3.39215519E-03 -4.32360724E-17  1.94332126E-03 -1.06003534E-03
 -2.13453868E-03  3.39215518E-03  5.18516881E-21  1.94332126E-03  1.06003534E-03
 -5.13335669E-04 -1.75524339E-04  2.89814874E-17 -9.32964550E-05 -4.89038797E-05
  5.13335669E-04  1.75524339E-04 -6.50001663E-18  9.32964550E-05 -4.89038797E-05
  2.13453868E-03 -3.39215518E-03  3.00196286E-17 -1.94332126E-03  1.06003534E-03
 -3.77653513E-12  1.90266469E-12  6.55160636E-18  3.95288400E-03 -5.82018456E-13
  6.61549591E-12 -4.47753957E-12 -6.08671565E-18 -3.95288400E-03 -1.42796459E-12
 -4.95839926E-01 -2.13317090E-02  3.68954308E-18  3.78503599E-05  2.11638866E-03
  4.95839927E-01  2.13317090E-02  1.68499436E-17 -3.78503599E-05  2.11638866E-03
 -4.95839926E-01 -2.13317090E-02 -7.23049769E-18 -3.78503598E-05 -2.11638866E-03
  4.95839926E-01  2.13317090E-02 -1.26640695E-17  3.78503597E-05 -2.11638866E-03
 -6.70922917E-05  1.23729002E-05 -1.23729002E-05  6.70922917E-05 -6.70922916E-05
  1.23729002E-05 -1.23729002E-05  6.70922916E-05 -4.59987081E-14  2.98082911E-14
 -7.03694845E-04 -3.32222310E-03  1.45553878E-17  1.97659791E-03  1.04710460E-03
 -2.92615059E-03 -2.72263788E-05 -1.35590584E-16  6.22196035E-05  3.93909782E-05
 -2.92615059E-03 -2.72263788E-05 -3.70228470E-17  6.22196035E-05 -3.93909782E-05
 -7.03694846E-04 -3.32222310E-03  3.84625769E-17  1.97659791E-03 -1.04710460E-03
 -7.03694845E-04 -3.32222310E-03 -5.20045704E-17 -1.97659791E-03 -1.04710460E-03
 -2.92615059E-03 -2.72263787E-05 -7.36202196E-18 -6.22196035E-05 -3.93909782E-05
 -2.92615059E-03 -2.72263788E-05  3.94082591E-18 -6.22196036E-05  3.93909782E-05
 -7.03694846E-04 -3.32222310E-03 -1.83462964E-17 -1.97659791E-03  1.04710460E-03
  7.15346419E-03 -6.59230466E-03 -2.63545080E-18 -1.00679924E-12  2.16461702E-03
  7.15346419E-03 -6.59230466E-03  3.15048578E-18  5.38256129E-13 -2.16461702E-03
  4.96287386E-01  1.49210109E-02  2.03282005E-18 -1.14713630E-06  2.28599978E-03
  4.96287386E-01  1.49210109E-02 -5.77932457E-18 -1.14713633E-06 -2.28599978E-03
  4.96287386E-01  1.49210109E-02  7.20291766E-18  1.14713633E-06 -2.28599978E-03
  4.96287386E-01  1.49210109E-02  8.00281195E-18  1.14713626E-06  2.28599978E-03
  3.54498565E-06 -3.91448977E-05 -3.91448977E-05  3.54498564E-06  3.54498566E-06
 -3.91448977E-05 -3.91448977E-05  3.54498562E-06 -4.08692136E-05 -4.08692135E-05
 -8.58242749E-02  4.30259347E-04  5.83761573E-17  1.83270122E-03 -1.09077916E-03
 -4.88894530E-01 -1.38971021E-02  9.79475449E-17  1.84375980E-04 -1.88155400E-03
 -4.88894529E-01 -1.38971021E-02 -1.94701410E-16  1.84375980E-04  1.88155401E-03
 -8.58242748E-02  4.30259348E-04 -7.38197731E-17  1.83270122E-03  1.09077916E-03
  8.58242901E-02 -4.30259424E-04  6.61548941E-17  1.83270155E-03 -1.09077936E-03
  4.88894617E-01  1.38971046E-02 -7.26034091E-17  1.84376013E-04 -1.88155434E-03
  4.88894617E-01  1.38971046E-02  8.07873426E-17  1.84376013E-04  1.88155434E-03
  8.58242902E-02 -4.30259424E-04 -4.41049076E-17  1.83270155E-03  1.09077936E-03
 -3.25740526E-10 -2.59650191E-11  1.38716705E-16  1.29406288E-04  4.25613222E-12
 -3.26609475E-10 -2.59784665E-11 -1.43925784E-18  1.29406288E-04 -4.24408628E-12
 -2.98857040E-03  3.84135555E-04 -1.19574363E-16  4.40018472E-04  6.91350970E-05
 -2.98857040E-03  3.84135554E-04 -1.87950271E-18  4.40018472E-04 -6.91350969E-05
  2.98857096E-03 -3.84135620E-04  2.39745443E-18  4.40018551E-04  6.91351082E-05
  2.98857096E-03 -3.84135620E-04  2.06135090E-18  4.40018551E-04 -6.91351082E-05
  5.78329959E-04  3.29283580E-03  3.29283580E-03  5.78329958E-04 -5.78330062E-04
 -3.29283638E-03 -3.29283638E-03 -5.78330062E-04  4.05631168E-13  4.01004873E-13
  8.58996876E-02 -4.31205633E-04  6.10393286E-17 -1.83060365E-03  1.09170078E-03
  4.88873519E-01  1.38959904E-02 -5.05504695E-17 -1.84114700E-04  1.88127473E-03
  4.88873518E-01  1.38959904E-02  1.44112242E-16 -1.84114700E-04 -1.88127473E-03
  8.58996875E-02 -4.31205634E-04 -9.47422779E-17 -1.83060365E-03 -1.09170078E-03
  8.58996723E-02 -4.31205557E-04  6.00694776E-18  1.83060332E-03 -1.09170058E-03
  4.88873431E-01  1.38959879E-02  2.08538611E-16  1.84114667E-04 -1.88127440E-03
  4.88873431E-01  1.38959879E-02  9.47733128E-17  1.84114667E-04  1.88127440E-03
  8.58996723E-02 -4.31205557E-04 -1.23053956E-17  1.83060332E-03  1.09170058E-03
 -3.66231153E-03 -2.91431110E-04  1.36677074E-16 -1.15400863E-11  4.76712261E-05
 -3.66231153E-03 -2.91431110E-04  1.98499116E-18 -1.15353431E-11 -4.76712261E-05
  3.15751391E-03 -3.69634916E-04 -2.23622781E-16 -4.40176313E-04 -6.31300673E-05
  3.15751391E-03 -3.69634916E-04 -2.96566748E-18 -4.40176312E-04  6.31300671E-05
  3.15751338E-03 -3.69634847E-04  1.87545462E-18  4.40176234E-04  6.31300549E-05
  3.15751338E-03 -3.69634847E-04  2.52116794E-18  4.40176234E-04 -6.31300549E-05
 -5.78296767E-04 -3.29268720E-03 -3.29268720E-03 -5.78296767E-04 -5.78296664E-04
 -3.29268661E-03 -3.29268661E-03 -5.78296664E-04  4.54771509E-06  4.54771510E-06
 -1.17426570E-01 -5.77402761E-04 -1.72143436E-17  1.86060828E-03 -9.98273874E-04
 -4.81862181E-01 -1.99791677E-02 -1.24600759E-17  2.07704762E-04  2.50712185E-03
  4.81862181E-01  1.99791677E-02  1.52177619E-16 -2.07704762E-04  2.50712185E-03
  1.17426570E-01  5.77402760E-04  2.04446408E-17 -1.86060828E-03 -9.98273875E-04
  1.17426578E-01  5.77402798E-04  5.61834283E-18  1.86060840E-03 -9.98273941E-04
  4.81862213E-01  1.99791690E-02  6.64349590E-17  2.07704776E-04  2.50712202E-03
 -4.81862213E-01 -1.99791690E-02 -3.04780000E-17 -2.07704776E-04  2.50712202E-03
 -1.17426578E-01 -5.77402798E-04 -1.30914953E-16 -1.86060840E-03 -9.98273941E-04
  2.77833617E-03  4.94103949E-05  9.72190258E-17 -4.40528205E-13  3.20733577E-05
 -2.77833617E-03 -4.94103950E-05  1.59842520E-18  3.92879585E-13  3.20733577E-05
  6.92315224E-04  6.90200317E-04 -1.03145660E-16  3.73126819E-04  2.24598957E-04
 -6.92315221E-04 -6.90200317E-04 -3.22548385E-18 -3.73126819E-04  2.24598958E-04
 -6.92315283E-04 -6.90200363E-04  2.04842478E-18  3.73126844E-04  2.24598973E-04
  6.92315283E-04  6.90200363E-04  3.43938928E-18 -3.73126844E-04  2.24598973E-04
  7.04750464E-04  3.29466014E-03 -3.29466014E-03 -7.04750465E-04 -7.04750511E-04
 -3.29466036E-03  3.29466036E-03  7.04750511E-04  9.81113329E-06 -9.81113329E-06
 -1.17249332E-01 -5.73205926E-04 -4.54681544E-17  1.86101075E-03 -9.97176639E-04
 -4.81908931E-01 -1.99817161E-02 -3.17210262E-17  2.08009641E-04  2.50702948E-03
  4.81908931E-01  1.99817161E-02  1.07261390E-17 -2.08009641E-04  2.50702948E-03
  1.17249332E-01  5.73205926E-04  1.24842079E-17 -1.86101075E-03 -9.97176640E-04
 -1.17249324E-01 -5.73205888E-04 -3.00313075E-17 -1.86101062E-03  9.97176573E-04
 -4.81908899E-01 -1.99817147E-02  3.07859564E-17 -2.08009628E-04 -2.50702932E-03
  4.81908899E-01  1.99817147E-02 -6.76671086E-18  2.08009628E-04 -2.50702932E-03
  1.17249324E-01  5.73205888E-04 -3.94701142E-17  1.86101062E-03  9.97176573E-04
  9.21152745E-11  1.60438850E-12 -8.32004869E-17  1.25271726E-05  1.07418579E-12
 -9.32414195E-11 -1.70263528E-12  7.73565490E-19 -1.25271726E-05  1.05706177E-12
  9.09122032E-04  6.93924763E-04  6.57176331E-17  3.77865585E-04  2.26861667E-04
 -9.09122030E-04 -6.93924763E-04  2.28626351E-18 -3.77865585E-04  2.26861667E-04
  9.09121985E-04  6.93924717E-04 -2.55766507E-18 -3.77865560E-04 -2.26861652E-04
 -9.09121985E-04 -6.93924717E-04 -3.16859686E-18  3.77865560E-04 -2.26861652E-04
  7.04898390E-04  3.29497212E-03 -3.29497212E-03 -7.04898390E-04  7.04898343E-04
  3.29497190E-03 -3.29497190E-03 -7.04898343E-04  3.24007736E-13 -3.23655219E-13
  4.81948143E-01  1.85304758E-02 -4.81309981E-17  6.39273224E-04 -9.26005091E-04
 -1.17068687E-01 -8.77940568E-03  1.10927105E-16  2.03628328E-03 -5.08311253E-04
  1.17068687E-01  8.77940568E-03  2.94871899E-17 -2.03628328E-03 -5.08311252E-04
 -4.81948142E-01 -1.85304758E-02 -1.29379444E-16 -6.39273224E-04 -9.26005091E-04
 -4.81948140E-01 -1.85304757E-02  1.31275471E-16  6.39273220E-04 -9.26005085E-04
  1.17068687E-01  8.77940563E-03 -2.58227681E-17  2.03628327E-03 -5.08311250E-04
 -1.17068687E-01 -8.77940562E-03  1.24736654E-16 -2.03628327E-03 -5.08311249E-04
  4.81948139E-01  1.85304757E-02  6.55784946E-18 -6.39273220E-04 -9.26005085E-04
 -7.90908582E-03  2.21206466E-05 -2.56678713E-17  2.55408925E-13 -5.79288145E-05
  7.90908582E-03 -2.21206467E-05  3.96018632E-17 -2.49890686E-13 -5.79288145E-05
 -1.14166613E-03 -3.46097652E-03  6.47319054E-18 -1.90186083E-03 -9.39757988E-04
  1.14166613E-03  3.46097652E-03  7.81811267E-19  1.90186083E-03 -9.39757987E-04
  1.14166612E-03  3.46097650E-03 -2.20614804E-19 -1.90186082E-03 -9.39757982E-04
 -1.14166612E-03 -3.46097650E-03  1.01425895E-19  1.90186082E-03 -9.39757981E-04
 -3.27162535E-03  8.96132542E-04 -8.96132541E-04  3.27162535E-03  3.27162533E-03
 -8.96132536E-04  8.96132536E-04 -3.27162533E-03 -1.74811452E-05  1.74811452E-05
  4.82025549E-01  1.85387345E-02 -2.43370652E-17  6.37047899E-04 -9.29118176E-04
 -1.16877411E-01 -8.77352223E-03  1.13429050E-16  2.03755561E-03 -5.09659579E-04
  1.16877411E-01  8.77352223E-03 -4.00466713E-17 -2.03755561E-03 -5.09659578E-04
 -4.82025549E-01 -1.85387345E-02  5.24922214E-17 -6.37047899E-04 -9.29118176E-04
  4.82025552E-01  1.85387346E-02  6.90052021E-19 -6.37047903E-04  9.29118182E-04
 -1.16877412E-01 -8.77352229E-03 -1.78247363E-17 -2.03755562E-03  5.09659582E-04
  1.16877412E-01  8.77352228E-03 -1.93722368E-17  2.03755562E-03  5.09659582E-04
 -4.82025552E-01 -1.85387346E-02  5.30880383E-18  6.37047903E-04  9.29118182E-04
  2.13739096E-11 -1.62928217E-13  2.67050735E-17  8.02204127E-05  1.96331039E-13
 -2.81515936E-11 -1.27953412E-14 -7.80689049E-17 -8.02204127E-05  1.69122257E-13
 -1.54148405E-03 -3.47016560E-03 -2.45405264E-17 -1.91267863E-03 -9.55865691E-04
  1.54148405E-03  3.47016560E-03 -1.82790999E-18  1.91267863E-03 -9.55865690E-04
 -1.54148406E-03 -3.47016562E-03 -4.43548936E-20  1.91267864E-03  9.55865697E-04
  1.54148406E-03  3.47016562E-03  7.34637122E-19 -1.91267864E-03  9.55865696E-04
 -3.27495455E-03  8.95056190E-04 -8.95056190E-04  3.27495454E-03 -3.27495457E-03
  8.95056196E-04 -8.95056196E-04  3.27495456E-03  5.83555527E-14 -5.40499665E-14
  4.88635620E-01  1.84005150E-02  6.31642864E-18  5.17285457E-04 -6.61433620E-04
 -8.54777804E-02 -6.06354557E-03 -5.05981708E-18  2.07772675E-03 -1.47436787E-03
 -8.54777805E-02 -6.06354557E-03  6.48742254E-17  2.07772675E-03  1.47436787E-03
  4.88635621E-01  1.84005150E-02  2.35430121E-17  5.17285458E-04  6.61433621E-04
 -4.88635617E-01 -1.84005149E-02  9.02664694E-17  5.17285454E-04 -6.61433616E-04
  8.54777798E-02  6.06354553E-03 -5.53181953E-17  2.07772673E-03 -1.47436786E-03
  8.54777799E-02  6.06354553E-03  6.10302988E-17  2.07772673E-03  1.47436786E-03