Benzene Spherical                                                       
SP        RB3LYP                                                      CC-pVTZ             
Number of atoms                            I               12
Info1-9                                    I   N=           9
          23          21           0           0           0         110
           1          18        -502
Full Title                                 C   N=           2
Benzene Spherical       
Route                                      C   N=           4
#p B3LYP/cc-pVTZ out=wfx gfinput pop=full       
Charge                                     I                0
Multiplicity                               I                1
Number of electrons                        I               42
Number of alpha electrons                  I               21
Number of beta electrons                   I               21
Number of basis functions                  I              264
Number of independent functions            I              264
Number of point charges in /Mol/           I                0
Number of translation vectors              I                0
Atomic numbers                             I   N=          12
           6           6           6           6           6           6
           1           1           1           1           1           1
Nuclear charges                            R   N=          12
  6.00000000E+00  6.00000000E+00  6.00000000E+00  6.00000000E+00  6.00000000E+00
  6.00000000E+00  1.00000000E+00  1.00000000E+00  1.00000000E+00  1.00000000E+00
  1.00000000E+00  1.00000000E+00
Current cartesian coordinates              R   N=          36
  9.87055617E-33  3.22396831E-16  2.63256991E+00 -1.39601978E-16  2.27987331E+00
  1.31628495E+00  2.15964378E-17  2.27987331E+00 -1.31628495E+00  3.22396831E-16
 -3.22396831E-16 -2.63256991E+00 -1.39601978E-16 -2.27987331E+00 -1.31628495E+00
 -1.39601978E-16 -2.27987331E+00  1.31628495E+00  1.75937944E-32  5.74656933E-16
  4.69242996E+00 -2.48833628E-16  4.06376154E+00  2.34622537E+00  3.84961111E-17
  4.06376154E+00 -2.34622537E+00  5.74656933E-16 -5.74656933E-16 -4.69242996E+00
 -2.48833628E-16 -4.06376154E+00 -2.34622537E+00 -2.48833628E-16 -4.06376154E+00
  2.34622537E+00
Number of symbols in /Mol/                 I                0
Force Field                                I                0
Atom Types                                 C   N=          12
                                                            
                                                            
                        
Int Atom Types                             I   N=          12
           0           0           0           0           0           0
           0           0           0           0           0           0
MM charges                                 R   N=          12
  0.00000000E+00  0.00000000E+00  0.00000000E+00  0.00000000E+00  0.00000000E+00
  0.00000000E+00  0.00000000E+00  0.00000000E+00  0.00000000E+00  0.00000000E+00
  0.00000000E+00  0.00000000E+00
Integer atomic weights                     I   N=          12
          12          12          12          12          12          12
           1           1           1           1           1           1
Real atomic weights                        R   N=          12
  1.20000000E+01  1.20000000E+01  1.20000000E+01  1.20000000E+01  1.20000000E+01
  1.20000000E+01  1.00782504E+00  1.00782504E+00  1.00782504E+00  1.00782504E+00
  1.00782504E+00  1.00782504E+00
Atom fragment info                         I   N=          12
           0           0           0           0           0           0
           0           0           0           0           0           0
Atom residue num                           I   N=          12
           0           0           0           0           0           0
           0           0           0           0           0           0
Nuclear spins                              I   N=          12
           0           0           0           0           0           0
           1           1           1           1           1           1
Nuclear ZEff                               R   N=          12
 -3.60000000E+00 -3.60000000E+00 -3.60000000E+00 -3.60000000E+00 -3.60000000E+00
 -3.60000000E+00 -1.00000000E+00 -1.00000000E+00 -1.00000000E+00 -1.00000000E+00
 -1.00000000E+00 -1.00000000E+00
Nuclear ZNuc                               R   N=          12
  6.00000000E+00  6.00000000E+00  6.00000000E+00  6.00000000E+00  6.00000000E+00
  6.00000000E+00  1.00000000E+00  1.00000000E+00  1.00000000E+00  1.00000000E+00
  1.00000000E+00  1.00000000E+00
Nuclear QMom                               R   N=          12
  0.00000000E+00  0.00000000E+00  0.00000000E+00  0.00000000E+00  0.00000000E+00
  0.00000000E+00  0.00000000E+00  0.00000000E+00  0.00000000E+00  0.00000000E+00
  0.00000000E+00  0.00000000E+00
Nuclear GFac                               R   N=          12
  0.00000000E+00  0.00000000E+00  0.00000000E+00  0.00000000E+00  0.00000000E+00
  0.00000000E+00  2.79284600E+00  2.79284600E+00  2.79284600E+00  2.79284600E+00
  2.79284600E+00  2.79284600E+00
MicOpt                                     I   N=          12
          -1          -1          -1          -1          -1          -1
          -1          -1          -1          -1          -1          -1
Number of residues                         I                0
Number of secondary structures             I                0
SymInf integers                            I   N=          26
           4           8           1           1           1          -1
          -1           1          -1           1          -1           1
          -1          -1          -1           1           1           1
          -1           1           1           1          -1          -1
          -1          -1
RotTr to input orientation                 R   N=          12
  1.00000000E+00  6.12323400E-17 -1.12481984E-32 -6.12323400E-17  1.00000000E+00
 -1.22464680E-16  3.74939946E-33  1.22464680E-16  1.00000000E+00  0.00000000E+00
  0.00000000E+00  0.00000000E+00
Number of contracted shells                I               96
Number of primitive shells                 I              186
Pure/Cartesian d shells                    I                0
Pure/Cartesian f shells                    I                0
Highest angular momentum                   I                3
Largest degree of contraction              I                7
Shell types                                I   N=          96
           0           0           0           0           1           1
           1          -2          -2          -3           0           0
           0           0           1           1           1          -2
          -2          -3           0           0           0           0
           1           1           1          -2          -2          -3
           0           0           0           0           1           1
           1          -2          -2          -3           0           0
           0           0           1           1           1          -2
          -2          -3           0           0           0           0
           1           1           1          -2          -2          -3
           0           0           0           1           1          -2
           0           0           0           1           1          -2
           0           0           0           1           1          -2
           0           0           0           1           1          -2
           0           0           0           1           1          -2
           0           0           0           1           1          -2
Number of primitives per shell             I   N=          96
           7           6           1           1           3           1
           1           1           1           1           7           6
           1           1           3           1           1           1
           1           1           7           6           1           1
           3           1           1           1           1           1
           7           6           1           1           3           1
           1           1           1           1           7           6
           1           1           3           1           1           1
           1           1           7           6           1           1
           3           1           1           1           1           1
           3           1           1           1           1           1
           3           1           1           1           1           1
           3           1           1           1           1           1
           3           1           1           1           1           1
           3           1           1           1           1           1
           3           1           1           1           1           1
Shell to atom map                          I   N=          96
           1           1           1           1           1           1
           1           1           1           1           2           2
           2           2           2           2           2           2
           2           2           3           3           3           3
           3           3           3           3           3           3
           4           4           4           4           4           4
           4           4           4           4           5           5
           5           5           5           5           5           5
           5           5           6           6           6           6
           6           6           6           6           6           6
           7           7           7           7           7           7
           8           8           8           8           8           8
           9           9           9           9           9           9
          10          10          10          10          10          10
          11          11          11          11          11          11
          12          12          12          12          12          12
Primitive exponents                        R   N=         186
  8.23600000E+03  1.23500000E+03  2.80800000E+02  7.92700000E+01  2.55900000E+01
  8.99700000E+00  3.31900000E+00  2.80800000E+02  7.92700000E+01  2.55900000E+01
  8.99700000E+00  3.31900000E+00  3.64300000E-01  9.05900000E-01  1.28500000E-01
  1.87100000E+01  4.13300000E+00  1.20000000E+00  3.82700000E-01  1.20900000E-01
  1.09700000E+00  3.18000000E-01  7.61000000E-01  8.23600000E+03  1.23500000E+03
  2.80800000E+02  7.92700000E+01  2.55900000E+01  8.99700000E+00  3.31900000E+00
  2.80800000E+02  7.92700000E+01  2.55900000E+01  8.99700000E+00  3.31900000E+00
  3.64300000E-01  9.05900000E-01  1.28500000E-01  1.87100000E+01  4.13300000E+00
  1.20000000E+00  3.82700000E-01  1.20900000E-01  1.09700000E+00  3.18000000E-01
  7.61000000E-01  8.23600000E+03  1.23500000E+03  2.80800000E+02  7.92700000E+01
  2.55900000E+01  8.99700000E+00  3.31900000E+00  2.80800000E+02  7.92700000E+01
  2.55900000E+01  8.99700000E+00  3.31900000E+00  3.64300000E-01  9.05900000E-01
  1.28500000E-01  1.87100000E+01  4.13300000E+00  1.20000000E+00  3.82700000E-01
  1.20900000E-01  1.09700000E+00  3.18000000E-01  7.61000000E-01  8.23600000E+03
  1.23500000E+03  2.80800000E+02  7.92700000E+01  2.55900000E+01  8.99700000E+00
  3.31900000E+00  2.80800000E+02  7.92700000E+01  2.55900000E+01  8.99700000E+00
  3.31900000E+00  3.64300000E-01  9.05900000E-01  1.28500000E-01  1.87100000E+01
  4.13300000E+00  1.20000000E+00  3.82700000E-01  1.20900000E-01  1.09700000E+00
  3.18000000E-01  7.61000000E-01  8.23600000E+03  1.23500000E+03  2.80800000E+02
  7.92700000E+01  2.55900000E+01  8.99700000E+00  3.31900000E+00  2.80800000E+02
  7.92700000E+01  2.55900000E+01  8.99700000E+00  3.31900000E+00  3.64300000E-01
  9.05900000E-01  1.28500000E-01  1.87100000E+01  4.13300000E+00  1.20000000E+00
  3.82700000E-01  1.20900000E-01  1.09700000E+00  3.18000000E-01  7.61000000E-01
  8.23600000E+03  1.23500000E+03  2.80800000E+02  7.92700000E+01  2.55900000E+01
  8.99700000E+00  3.31900000E+00  2.80800000E+02  7.92700000E+01  2.55900000E+01
  8.99700000E+00  3.31900000E+00  3.64300000E-01  9.05900000E-01  1.28500000E-01
  1.87100000E+01  4.13300000E+00  1.20000000E+00  3.82700000E-01  1.20900000E-01
  1.09700000E+00  3.18000000E-01  7.61000000E-01  3.38700000E+01  5.09500000E+00
  1.15900000E+00  3.25800000E-01  1.02700000E-01  1.40700000E+00  3.88000000E-01
  1.05700000E+00  3.38700000E+01  5.09500000E+00  1.15900000E+00  3.25800000E-01
  1.02700000E-01  1.40700000E+00  3.88000000E-01  1.05700000E+00  3.38700000E+01
  5.09500000E+00  1.15900000E+00  3.25800000E-01  1.02700000E-01  1.40700000E+00
  3.88000000E-01  1.05700000E+00  3.38700000E+01  5.09500000E+00  1.15900000E+00
  3.25800000E-01  1.02700000E-01  1.40700000E+00  3.88000000E-01  1.05700000E+00
  3.38700000E+01  5.09500000E+00  1.15900000E+00  3.25800000E-01  1.02700000E-01
  1.40700000E+00  3.88000000E-01  1.05700000E+00  3.38700000E+01  5.09500000E+00
  1.15900000E+00  3.25800000E-01  1.02700000E-01  1.40700000E+00  3.88000000E-01
  1.05700000E+00
Contraction coefficients                   R   N=         186
  5.41978320E-04  4.19287382E-03  2.15221621E-02  8.35343220E-02  2.39582846E-01
  4.42852842E-01  3.51799562E-01 -5.94922494E-05 -1.14815831E-03 -1.00191374E-02
 -6.12194923E-02 -1.73269854E-01  1.07291519E+00  1.00000000E+00  1.00000000E+00
  3.94263872E-02  2.44088985E-01  8.15492009E-01  1.00000000E+00  1.00000000E+00
  1.00000000E+00  1.00000000E+00  1.00000000E+00  5.41978320E-04  4.19287382E-03
  2.15221621E-02  8.35343220E-02  2.39582846E-01  4.42852842E-01  3.51799562E-01
 -5.94922494E-05 -1.14815831E-03 -1.00191374E-02 -6.12194923E-02 -1.73269854E-01
  1.07291519E+00  1.00000000E+00  1.00000000E+00  3.94263872E-02  2.44088985E-01
  8.15492009E-01  1.00000000E+00  1.00000000E+00  1.00000000E+00  1.00000000E+00
  1.00000000E+00  5.41978320E-04  4.19287382E-03  2.15221621E-02  8.35343220E-02
  2.39582846E-01  4.42852842E-01  3.51799562E-01 -5.94922494E-05 -1.14815831E-03
 -1.00191374E-02 -6.12194923E-02 -1.73269854E-01  1.07291519E+00  1.00000000E+00
  1.00000000E+00  3.94263872E-02  2.44088985E-01  8.15492009E-01  1.00000000E+00
  1.00000000E+00  1.00000000E+00  1.00000000E+00  1.00000000E+00  5.41978320E-04
  4.19287382E-03  2.15221621E-02  8.35343220E-02  2.39582846E-01  4.42852842E-01
  3.51799562E-01 -5.94922494E-05 -1.14815831E-03 -1.00191374E-02 -6.12194923E-02
 -1.73269854E-01  1.07291519E+00  1.00000000E+00  1.00000000E+00  3.94263872E-02
  2.44088985E-01  8.15492009E-01  1.00000000E+00  1.00000000E+00  1.00000000E+00
  1.00000000E+00  1.00000000E+00  5.41978320E-04  4.19287382E-03  2.15221621E-02
  8.35343220E-02  2.39582846E-01  4.42852842E-01  3.51799562E-01 -5.94922494E-05
 -1.14815831E-03 -1.00191374E-02 -6.12194923E-02 -1.73269854E-01  1.07291519E+00
  1.00000000E+00  1.00000000E+00  3.94263872E-02  2.44088985E-01  8.15492009E-01
  1.00000000E+00  1.00000000E+00  1.00000000E+00  1.00000000E+00  1.00000000E+00
  5.41978320E-04  4.19287382E-03  2.15221621E-02  8.35343220E-02  2.39582846E-01
  4.42852842E-01  3.51799562E-01 -5.94922494E-05 -1.14815831E-03 -1.00191374E-02
 -6.12194923E-02 -1.73269854E-01  1.07291519E+00  1.00000000E+00  1.00000000E+00
  3.94263872E-02  2.44088985E-01  8.15492009E-01  1.00000000E+00  1.00000000E+00
  1.00000000E+00  1.00000000E+00  1.00000000E+00  2.54948632E-02  1.90362766E-01
  8.52162022E-01  1.00000000E+00  1.00000000E+00  1.00000000E+00  1.00000000E+00
  1.00000000E+00  2.54948632E-02  1.90362766E-01  8.52162022E-01  1.00000000E+00
  1.00000000E+00  1.00000000E+00  1.00000000E+00  1.00000000E+00  2.54948632E-02
  1.90362766E-01  8.52162022E-01  1.00000000E+00  1.00000000E+00  1.00000000E+00
  1.00000000E+00  1.00000000E+00  2.54948632E-02  1.90362766E-01  8.52162022E-01
  1.00000000E+00  1.00000000E+00  1.00000000E+00  1.00000000E+00  1.00000000E+00
  2.54948632E-02  1.90362766E-01  8.52162022E-01  1.00000000E+00  1.00000000E+00
  1.00000000E+00  1.00000000E+00  1.00000000E+00  2.54948632E-02  1.90362766E-01
  8.52162022E-01  1.00000000E+00  1.00000000E+00  1.00000000E+00  1.00000000E+00
  1.00000000E+00
Coordinates of each shell                  R   N=         288
  0.00000000E+00  0.00000000E+00  2.63256991E+00  0.00000000E+00  0.00000000E+00
  2.63256991E+00  0.00000000E+00  0.00000000E+00  2.63256991E+00  0.00000000E+00
  0.00000000E+00  2.63256991E+00  0.00000000E+00  0.00000000E+00  2.63256991E+00
  0.00000000E+00  0.00000000E+00  2.63256991E+00  0.00000000E+00  0.00000000E+00
  2.63256991E+00  0.00000000E+00  0.00000000E+00  2.63256991E+00  0.00000000E+00
  0.00000000E+00  2.63256991E+00  0.00000000E+00  0.00000000E+00  2.63256991E+00
  0.00000000E+00  2.27987331E+00  1.31628495E+00  0.00000000E+00  2.27987331E+00
  1.31628495E+00  0.00000000E+00  2.27987331E+00  1.31628495E+00  0.00000000E+00
  2.27987331E+00  1.31628495E+00  0.00000000E+00  2.27987331E+00  1.31628495E+00
  0.00000000E+00  2.27987331E+00  1.31628495E+00  0.00000000E+00  2.27987331E+00
  1.31628495E+00  0.00000000E+00  2.27987331E+00  1.31628495E+00  0.00000000E+00
  2.27987331E+00  1.31628495E+00  0.00000000E+00  2.27987331E+00  1.31628495E+00
  1.61198415E-16  2.27987331E+00 -1.31628495E+00  1.61198415E-16  2.27987331E+00
 -1.31628495E+00  1.61198415E-16  2.27987331E+00 -1.31628495E+00  1.61198415E-16
  2.27987331E+00 -1.31628495E+00  1.61198415E-16  2.27987331E+00 -1.31628495E+00
  1.61198415E-16  2.27987331E+00 -1.31628495E+00  1.61198415E-16  2.27987331E+00
 -1.31628495E+00  1.61198415E-16  2.27987331E+00 -1.31628495E+00  1.61198415E-16
  2.27987331E+00 -1.31628495E+00  1.61198415E-16  2.27987331E+00 -1.31628495E+00
  3.22396831E-16  0.00000000E+00 -2.63256991E+00  3.22396831E-16  0.00000000E+00
 -2.63256991E+00  3.22396831E-16  0.00000000E+00 -2.63256991E+00  3.22396831E-16
  0.00000000E+00 -2.63256991E+00  3.22396831E-16  0.00000000E+00 -2.63256991E+00
  3.22396831E-16  0.00000000E+00 -2.63256991E+00  3.22396831E-16  0.00000000E+00
 -2.63256991E+00  3.22396831E-16  0.00000000E+00 -2.63256991E+00  3.22396831E-16
  0.00000000E+00 -2.63256991E+00  3.22396831E-16  0.00000000E+00 -2.63256991E+00
 -2.79203955E-16 -2.27987331E+00 -1.31628495E+00 -2.79203955E-16 -2.27987331E+00
 -1.31628495E+00 -2.79203955E-16 -2.27987331E+00 -1.31628495E+00 -2.79203955E-16
 -2.27987331E+00 -1.31628495E+00 -2.79203955E-16 -2.27987331E+00 -1.31628495E+00
 -2.79203955E-16 -2.27987331E+00 -1.31628495E+00 -2.79203955E-16 -2.27987331E+00
 -1.31628495E+00 -2.79203955E-16 -2.27987331E+00 -1.31628495E+00 -2.79203955E-16
 -2.27987331E+00 -1.31628495E+00 -2.79203955E-16 -2.27987331E+00 -1.31628495E+00
 -2.79203955E-16 -2.27987331E+00  1.31628495E+00 -2.79203955E-16 -2.27987331E+00
  1.31628495E+00 -2.79203955E-16 -2.27987331E+00  1.31628495E+00 -2.79203955E-16
 -2.27987331E+00  1.31628495E+00 -2.79203955E-16 -2.27987331E+00  1.31628495E+00
 -2.79203955E-16 -2.27987331E+00  1.31628495E+00 -2.79203955E-16 -2.27987331E+00
  1.31628495E+00 -2.79203955E-16 -2.27987331E+00  1.31628495E+00 -2.79203955E-16
 -2.27987331E+00  1.31628495E+00 -2.79203955E-16 -2.27987331E+00  1.31628495E+00
  0.00000000E+00  0.00000000E+00  4.69242996E+00  0.00000000E+00  0.00000000E+00
  4.69242996E+00  0.00000000E+00  0.00000000E+00  4.69242996E+00  0.00000000E+00
  0.00000000E+00  4.69242996E+00  0.00000000E+00  0.00000000E+00  4.69242996E+00
  0.00000000E+00  0.00000000E+00  4.69242996E+00  0.00000000E+00  4.06376154E+00
  2.34622537E+00  0.00000000E+00  4.06376154E+00  2.34622537E+00  0.00000000E+00
  4.06376154E+00  2.34622537E+00  0.00000000E+00  4.06376154E+00  2.34622537E+00
  0.00000000E+00  4.06376154E+00  2.34622537E+00  0.00000000E+00  4.06376154E+00
  2.34622537E+00  2.87329740E-16  4.06376154E+00 -2.34622537E+00  2.87329740E-16
  4.06376154E+00 -2.34622537E+00  2.87329740E-16  4.06376154E+00 -2.34622537E+00
  2.87329740E-16  4.06376154E+00 -2.34622537E+00  2.87329740E-16  4.06376154E+00
 -2.34622537E+00  2.87329740E-16  4.06376154E+00 -2.34622537E+00  5.74656933E-16
  0.00000000E+00 -4.69242996E+00  5.74656933E-16  0.00000000E+00 -4.69242996E+00
  5.74656933E-16  0.00000000E+00 -4.69242996E+00  5.74656933E-16  0.00000000E+00
 -4.69242996E+00  5.74656933E-16  0.00000000E+00 -4.69242996E+00  5.74656933E-16
  0.00000000E+00 -4.69242996E+00 -4.97667257E-16 -4.06376154E+00 -2.34622537E+00
 -4.97667257E-16 -4.06376154E+00 -2.34622537E+00 -4.97667257E-16 -4.06376154E+00
 -2.34622537E+00 -4.97667257E-16 -4.06376154E+00 -2.34622537E+00 -4.97667257E-16
 -4.06376154E+00 -2.34622537E+00 -4.97667257E-16 -4.06376154E+00 -2.34622537E+00
 -4.97667257E-16 -4.06376154E+00  2.34622537E+00 -4.97667257E-16 -4.06376154E+00
  2.34622537E+00 -4.97667257E-16 -4.06376154E+00  2.34622537E+00 -4.97667257E-16
 -4.06376154E+00  2.34622537E+00 -4.97667257E-16 -4.06376154E+00  2.34622537E+00
 -4.97667257E-16 -4.06376154E+00  2.34622537E+00
Num ILSW                                   I              100
ILSW                                       I   N=         100
           0           0           0           0           2           0
           0           0           0           0         402          -1
           5           0           0           0           0           0
           0           0           0           0           0           0
           1           0           0           0           0           0
           0           0      100000           0          -1           0
           0           0           0           0           0           0
           0           0           0           1           0           0
           0 -2000000000           1           0           0           0
           0           0           4          52           0           0
           0           0           5           0           0           0
           0           0           0          12           0           1
           0           0           0           0           0           0
           0           0           0           0           0           0
           0           0           0           0           0           0
           0           0           0           0           0           0
           0           0           0           0
Num RLSW                                   I               52
RLSW                                       R   N=          52
  8.00000000E-01  7.20000000E-01  1.00000000E+00  8.10000000E-01  2.00000000E-01
  0.00000000E+00  0.00000000E+00  1.00000000E+00  0.00000000E+00  0.00000000E+00
  0.00000000E+00  0.00000000E+00  1.00000000E+00  0.00000000E+00  0.00000000E+00
  0.00000000E+00  0.00000000E+00  1.00000000E+00  0.00000000E+00  0.00000000E+00
  0.00000000E+00  0.00000000E+00  1.00000000E+00  0.00000000E+00  0.00000000E+00
  0.00000000E+00  0.00000000E+00  1.00000000E+00  0.00000000E+00  0.00000000E+00
  0.00000000E+00  0.00000000E+00  1.00000000E+00  0.00000000E+00  0.00000000E+00
  0.00000000E+00  0.00000000E+00  0.00000000E+00  1.00000000E+00  1.00000000E+00
  0.00000000E+00  1.00000000E+00  0.00000000E+00  0.00000000E+00  0.00000000E+00
  0.00000000E+00  0.00000000E+00  0.00000000E+00  0.00000000E+00  0.00000000E+00
  0.00000000E+00  0.00000000E+00
MxBond                                     I                3
NBond                                      I   N=          12
           3           3           3           3           3           3
           1           1           1           1           1           1
IBond                                      I   N=          36
           2           6           7           1           3           8
           2           4           9           3           5          10
           4           6          11           1           5          12
           1           0           0           2           0           0
           3           0           0           4           0           0
           5           0           0           6           0           0
RBond                                      R   N=          36
  1.50000000E+00  1.50000000E+00  1.00000000E+00  1.50000000E+00  1.50000000E+00
  1.00000000E+00  1.50000000E+00  1.50000000E+00  1.00000000E+00  1.50000000E+00
  1.50000000E+00  1.00000000E+00  1.50000000E+00  1.50000000E+00  1.00000000E+00
  1.50000000E+00  1.50000000E+00  1.00000000E+00  1.00000000E+00  0.00000000E+00
  0.00000000E+00  1.00000000E+00  0.00000000E+00  0.00000000E+00  1.00000000E+00
  0.00000000E+00  0.00000000E+00  1.00000000E+00  0.00000000E+00  0.00000000E+00
  1.00000000E+00  0.00000000E+00  0.00000000E+00  1.00000000E+00  0.00000000E+00
  0.00000000E+00
Virial Ratio                               R      2.007363339371642E+00
SCF Energy                                 R     -2.323330946221982E+02
Total Energy                               R     -2.323330946221982E+02
RMS Density                                R      5.922807982791156E-09
Job Status                                 I                1
Nuclear derivative order                   I                0
External E-field                           R   N=          35
  0.00000000E+00  0.00000000E+00  0.00000000E+00  0.00000000E+00  0.00000000E+00
  0.00000000E+00  0.00000000E+00  0.00000000E+00  0.00000000E+00  0.00000000E+00
  0.00000000E+00  0.00000000E+00  0.00000000E+00  0.00000000E+00  0.00000000E+00
  0.00000000E+00  0.00000000E+00  0.00000000E+00  0.00000000E+00  0.00000000E+00
  0.00000000E+00  0.00000000E+00  0.00000000E+00  0.00000000E+00  0.00000000E+00
  0.00000000E+00  0.00000000E+00  0.00000000E+00  0.00000000E+00  0.00000000E+00
  0.00000000E+00  0.00000000E+00  0.00000000E+00  0.00000000E+00  0.00000000E+00
IOpCl                                      I                0
IROHF                                      I                0
Alpha Orbital Energies                     R   N=         264
 -1.01803626E+01 -1.01801038E+01 -1.01801038E+01 -1.01795156E+01 -1.01795156E+01
 -1.01792524E+01 -8.56840765E-01 -7.48135639E-01 -7.48135547E-01 -6.04602614E-01
 -6.04602160E-01 -5.25810243E-01 -4.62001277E-01 -4.50296108E-01 -4.24029244E-01
 -4.24029033E-01 -3.71828826E-01 -3.47214215E-01 -3.47213344E-01 -2.58270732E-01
 -2.58270649E-01 -1.27234578E-02 -1.27233744E-02  3.81275663E-02  7.00851947E-02
  7.00853603E-02  1.01106759E-01  1.01107167E-01  1.26181927E-01  1.43072448E-01
  2.30656150E-01  2.30656677E-01  2.56693555E-01  2.59997558E-01  2.63608156E-01
  2.63609816E-01  2.78705731E-01  3.21627709E-01  3.21629492E-01  3.53396686E-01
  3.63789512E-01  3.63790920E-01  3.84935500E-01  3.96798868E-01  3.96799350E-01
  4.04446481E-01  4.04446938E-01  4.33260306E-01  4.33260961E-01  4.46509869E-01
  4.79523032E-01  4.80874265E-01  4.80875020E-01  4.95322286E-01  4.97539119E-01
  5.47173271E-01  5.48226703E-01  5.48227405E-01  5.74527171E-01  5.74527612E-01
  6.50053545E-01  6.73563585E-01  6.73564248E-01  7.07832987E-01  7.26258378E-01
  7.26261193E-01  7.45140764E-01  7.60343425E-01  7.60344592E-01  7.95082183E-01
  8.58480116E-01  8.58482937E-01  8.98032303E-01  9.23751259E-01  9.60177977E-01
  1.00122584E+00  1.00122664E+00  1.01877052E+00  1.01972070E+00  1.01972143E+00
  1.08609823E+00  1.08609898E+00  1.09989919E+00  1.10599518E+00  1.10599658E+00
  1.16697351E+00  1.16697472E+00  1.24897354E+00  1.24897375E+00  1.26067644E+00
  1.26207245E+00  1.26781925E+00  1.26782150E+00  1.28043377E+00  1.28043378E+00
  1.36702024E+00  1.36702252E+00  1.37974148E+00  1.38106527E+00  1.38106770E+00
  1.40973843E+00  1.40973991E+00  1.45774813E+00  1.47943924E+00  1.47944081E+00
  1.52098711E+00  1.58071807E+00  1.66702494E+00  1.85349486E+00  1.92503843E+00
  1.92504345E+00  1.96675790E+00  1.96830151E+00  1.98770488E+00  1.98770981E+00
  2.07588325E+00  2.09018739E+00  2.09018833E+00  2.14275180E+00  2.15829634E+00
  2.15830319E+00  2.17452075E+00  2.17452112E+00  2.28877448E+00  2.35247539E+00
  2.41277145E+00  2.41277236E+00  2.45611277E+00  2.45611383E+00  2.46998519E+00
  2.49617226E+00  2.56528331E+00  2.56528641E+00  2.60676594E+00  2.63130815E+00
  2.63130978E+00  2.68124588E+00  2.68124611E+00  2.68183870E+00  2.69606049E+00
  2.69606079E+00  2.74747985E+00  2.74748061E+00  2.74825606E+00  2.77938502E+00
  2.82603214E+00  2.82603458E+00  2.90286373E+00  2.90646490E+00  2.90646563E+00
  2.96194777E+00  2.96194904E+00  2.98095590E+00  2.98095851E+00  3.01354369E+00
  3.03676477E+00  3.04922272E+00  3.04922334E+00  3.05334771E+00  3.05334814E+00
  3.05371628E+00  3.05371779E+00  3.06971597E+00  3.10448114E+00  3.12030711E+00
  3.12030925E+00  3.13754515E+00  3.16939969E+00  3.28579054E+00  3.29995567E+00
  3.29995948E+00  3.31057909E+00  3.31643245E+00  3.31643817E+00  3.36337088E+00
  3.36337153E+00  3.37761066E+00  3.37761179E+00  3.39503613E+00  3.39503997E+00
  3.40904440E+00  3.55684369E+00  3.55684619E+00  3.57103303E+00  3.59275396E+00
  3.72970180E+00  3.73969511E+00  3.75556389E+00  3.75556799E+00  3.76569059E+00
  3.76875643E+00  3.76922992E+00  3.76923043E+00  3.77953126E+00  3.77953214E+00
  3.78569909E+00  3.83453231E+00  3.83540429E+00  3.83540549E+00  3.87752463E+00
  3.87752494E+00  3.99688048E+00  3.99735953E+00  3.99736602E+00  4.06461892E+00
  4.06461894E+00  4.08267201E+00  4.08925017E+00  4.08925182E+00  4.09094185E+00
  4.16293980E+00  4.17792726E+00  4.20084523E+00  4.20085172E+00  4.21879633E+00
  4.30496611E+00  4.30496925E+00  4.31318686E+00  4.31319060E+00  4.31409268E+00
  4.31409598E+00  4.34406381E+00  4.34406501E+00  4.47385511E+00  4.52027578E+00
  4.52027601E+00  4.63772687E+00  4.64445417E+00  4.64445981E+00  4.71025839E+00
  4.74281112E+00  4.74281242E+00  4.74985417E+00  4.74985451E+00  4.79910573E+00
  4.88361872E+00  4.92393925E+00  4.99803480E+00  5.00521005E+00  5.00521086E+00