Benzene Cartesian                                                       
SP        RB3LYP                                                      CC-pVTZ             
Number of atoms                            I               12
Info1-9                                    I   N=           9
          23          21           0           0           0         110
           1          18        -502
Full Title                                 C   N=           2
Benzene Cartesian       
Route                                      C   N=           4
#p B3LYP/cc-pVTZ 6d 10f out=wfx gfinput pop=full
Charge                                     I                0
Multiplicity                               I                1
Number of electrons                        I               42
Number of alpha electrons                  I               21
Number of beta electrons                   I               21
Number of basis functions                  I              300
Number of independent functions            I              300
Number of point charges in /Mol/           I                0
Number of translation vectors              I                0
Atomic numbers                             I   N=          12
           6           6           6           6           6           6
           1           1           1           1           1           1
Nuclear charges                            R   N=          12
  6.00000000E+00  6.00000000E+00  6.00000000E+00  6.00000000E+00  6.00000000E+00
  6.00000000E+00  1.00000000E+00  1.00000000E+00  1.00000000E+00  1.00000000E+00
  1.00000000E+00  1.00000000E+00
Current cartesian coordinates              R   N=          36
  9.87055617E-33  3.22396831E-16  2.63256991E+00 -1.39601978E-16  2.27987331E+00
  1.31628495E+00  2.15964378E-17  2.27987331E+00 -1.31628495E+00  3.22396831E-16
 -3.22396831E-16 -2.63256991E+00 -1.39601978E-16 -2.27987331E+00 -1.31628495E+00
 -1.39601978E-16 -2.27987331E+00  1.31628495E+00  1.75937944E-32  5.74656933E-16
  4.69242996E+00 -2.48833628E-16  4.06376154E+00  2.34622537E+00  3.84961111E-17
  4.06376154E+00 -2.34622537E+00  5.74656933E-16 -5.74656933E-16 -4.69242996E+00
 -2.48833628E-16 -4.06376154E+00 -2.34622537E+00 -2.48833628E-16 -4.06376154E+00
  2.34622537E+00
Number of symbols in /Mol/                 I                0
Force Field                                I                0
Atom Types                                 C   N=          12
                                                            
                                                            
                        
Int Atom Types                             I   N=          12
           0           0           0           0           0           0
           0           0           0           0           0           0
MM charges                                 R   N=          12
  0.00000000E+00  0.00000000E+00  0.00000000E+00  0.00000000E+00  0.00000000E+00
  0.00000000E+00  0.00000000E+00  0.00000000E+00  0.00000000E+00  0.00000000E+00
  0.00000000E+00  0.00000000E+00
Integer atomic weights                     I   N=          12
          12          12          12          12          12          12
           1           1           1           1           1           1
Real atomic weights                        R   N=          12
  1.20000000E+01  1.20000000E+01  1.20000000E+01  1.20000000E+01  1.20000000E+01
  1.20000000E+01  1.00782504E+00  1.00782504E+00  1.00782504E+00  1.00782504E+00
  1.00782504E+00  1.00782504E+00
Atom fragment info                         I   N=          12
           0           0           0           0           0           0
           0           0           0           0           0           0
Atom residue num                           I   N=          12
           0           0           0           0           0           0
           0           0           0           0           0           0
Nuclear spins                              I   N=          12
           0           0           0           0           0           0
           1           1           1           1           1           1
Nuclear ZEff                               R   N=          12
 -3.60000000E+00 -3.60000000E+00 -3.60000000E+00 -3.60000000E+00 -3.60000000E+00
 -3.60000000E+00 -1.00000000E+00 -1.00000000E+00 -1.00000000E+00 -1.00000000E+00
 -1.00000000E+00 -1.00000000E+00
Nuclear ZNuc                               R   N=          12
  6.00000000E+00  6.00000000E+00  6.00000000E+00  6.00000000E+00  6.00000000E+00
  6.00000000E+00  1.00000000E+00  1.00000000E+00  1.00000000E+00  1.00000000E+00
  1.00000000E+00  1.00000000E+00
Nuclear QMom                               R   N=          12
  0.00000000E+00  0.00000000E+00  0.00000000E+00  0.00000000E+00  0.00000000E+00
  0.00000000E+00  0.00000000E+00  0.00000000E+00  0.00000000E+00  0.00000000E+00
  0.00000000E+00  0.00000000E+00
Nuclear GFac                               R   N=          12
  0.00000000E+00  0.00000000E+00  0.00000000E+00  0.00000000E+00  0.00000000E+00
  0.00000000E+00  2.79284600E+00  2.79284600E+00  2.79284600E+00  2.79284600E+00
  2.79284600E+00  2.79284600E+00
MicOpt                                     I   N=          12
          -1          -1          -1          -1          -1          -1
          -1          -1          -1          -1          -1          -1
Number of residues                         I                0
Number of secondary structures             I                0
SymInf integers                            I   N=          26
           4           8           1           1           1          -1
          -1           1          -1           1          -1           1
          -1          -1          -1           1           1           1
          -1           1           1           1          -1          -1
          -1          -1
RotTr to input orientation                 R   N=          12
  1.00000000E+00  6.12323400E-17 -1.12481984E-32 -6.12323400E-17  1.00000000E+00
 -1.22464680E-16  3.74939946E-33  1.22464680E-16  1.00000000E+00  0.00000000E+00
  0.00000000E+00  0.00000000E+00
Number of contracted shells                I               96
Number of primitive shells                 I              186
Pure/Cartesian d shells                    I                1
Pure/Cartesian f shells                    I                1
Highest angular momentum                   I                3
Largest degree of contraction              I                7
Shell types                                I   N=          96
           0           0           0           0           1           1
           1           2           2           3           0           0
           0           0           1           1           1           2
           2           3           0           0           0           0
           1           1           1           2           2           3
           0           0           0           0           1           1
           1           2           2           3           0           0
           0           0           1           1           1           2
           2           3           0           0           0           0
           1           1           1           2           2           3
           0           0           0           1           1           2
           0           0           0           1           1           2
           0           0           0           1           1           2
           0           0           0           1           1           2
           0           0           0           1           1           2
           0           0           0           1           1           2
Number of primitives per shell             I   N=          96
           7           6           1           1           3           1
           1           1           1           1           7           6
           1           1           3           1           1           1
           1           1           7           6           1           1
           3           1           1           1           1           1
           7           6           1           1           3           1
           1           1           1           1           7           6
           1           1           3           1           1           1
           1           1           7           6           1           1
           3           1           1           1           1           1
           3           1           1           1           1           1
           3           1           1           1           1           1
           3           1           1           1           1           1
           3           1           1           1           1           1
           3           1           1           1           1           1
           3           1           1           1           1           1
Shell to atom map                          I   N=          96
           1           1           1           1           1           1
           1           1           1           1           2           2
           2           2           2           2           2           2
           2           2           3           3           3           3
           3           3           3           3           3           3
           4           4           4           4           4           4
           4           4           4           4           5           5
           5           5           5           5           5           5
           5           5           6           6           6           6
           6           6           6           6           6           6
           7           7           7           7           7           7
           8           8           8           8           8           8
           9           9           9           9           9           9
          10          10          10          10          10          10
          11          11          11          11          11          11
          12          12          12          12          12          12
Primitive exponents                        R   N=         186
  8.23600000E+03  1.23500000E+03  2.80800000E+02  7.92700000E+01  2.55900000E+01
  8.99700000E+00  3.31900000E+00  2.80800000E+02  7.92700000E+01  2.55900000E+01
  8.99700000E+00  3.31900000E+00  3.64300000E-01  9.05900000E-01  1.28500000E-01
  1.87100000E+01  4.13300000E+00  1.20000000E+00  3.82700000E-01  1.20900000E-01
  1.09700000E+00  3.18000000E-01  7.61000000E-01  8.23600000E+03  1.23500000E+03
  2.80800000E+02  7.92700000E+01  2.55900000E+01  8.99700000E+00  3.31900000E+00
  2.80800000E+02  7.92700000E+01  2.55900000E+01  8.99700000E+00  3.31900000E+00
  3.64300000E-01  9.05900000E-01  1.28500000E-01  1.87100000E+01  4.13300000E+00
  1.20000000E+00  3.82700000E-01  1.20900000E-01  1.09700000E+00  3.18000000E-01
  7.61000000E-01  8.23600000E+03  1.23500000E+03  2.80800000E+02  7.92700000E+01
  2.55900000E+01  8.99700000E+00  3.31900000E+00  2.80800000E+02  7.92700000E+01
  2.55900000E+01  8.99700000E+00  3.31900000E+00  3.64300000E-01  9.05900000E-01
  1.28500000E-01  1.87100000E+01  4.13300000E+00  1.20000000E+00  3.82700000E-01
  1.20900000E-01  1.09700000E+00  3.18000000E-01  7.61000000E-01  8.23600000E+03
  1.23500000E+03  2.80800000E+02  7.92700000E+01  2.55900000E+01  8.99700000E+00
  3.31900000E+00  2.80800000E+02  7.92700000E+01  2.55900000E+01  8.99700000E+00
  3.31900000E+00  3.64300000E-01  9.05900000E-01  1.28500000E-01  1.87100000E+01
  4.13300000E+00  1.20000000E+00  3.82700000E-01  1.20900000E-01  1.09700000E+00
  3.18000000E-01  7.61000000E-01  8.23600000E+03  1.23500000E+03  2.80800000E+02
  7.92700000E+01  2.55900000E+01  8.99700000E+00  3.31900000E+00  2.80800000E+02
  7.92700000E+01  2.55900000E+01  8.99700000E+00  3.31900000E+00  3.64300000E-01
  9.05900000E-01  1.28500000E-01  1.87100000E+01  4.13300000E+00  1.20000000E+00
  3.82700000E-01  1.20900000E-01  1.09700000E+00  3.18000000E-01  7.61000000E-01
  8.23600000E+03  1.23500000E+03  2.80800000E+02  7.92700000E+01  2.55900000E+01
  8.99700000E+00  3.31900000E+00  2.80800000E+02  7.92700000E+01  2.55900000E+01
  8.99700000E+00  3.31900000E+00  3.64300000E-01  9.05900000E-01  1.28500000E-01
  1.87100000E+01  4.13300000E+00  1.20000000E+00  3.82700000E-01  1.20900000E-01
  1.09700000E+00  3.18000000E-01  7.61000000E-01  3.38700000E+01  5.09500000E+00
  1.15900000E+00  3.25800000E-01  1.02700000E-01  1.40700000E+00  3.88000000E-01
  1.05700000E+00  3.38700000E+01  5.09500000E+00  1.15900000E+00  3.25800000E-01
  1.02700000E-01  1.40700000E+00  3.88000000E-01  1.05700000E+00  3.38700000E+01
  5.09500000E+00  1.15900000E+00  3.25800000E-01  1.02700000E-01  1.40700000E+00
  3.88000000E-01  1.05700000E+00  3.38700000E+01  5.09500000E+00  1.15900000E+00
  3.25800000E-01  1.02700000E-01  1.40700000E+00  3.88000000E-01  1.05700000E+00
  3.38700000E+01  5.09500000E+00  1.15900000E+00  3.25800000E-01  1.02700000E-01
  1.40700000E+00  3.88000000E-01  1.05700000E+00  3.38700000E+01  5.09500000E+00
  1.15900000E+00  3.25800000E-01  1.02700000E-01  1.40700000E+00  3.88000000E-01
  1.05700000E+00
Contraction coefficients                   R   N=         186
  5.41978320E-04  4.19287382E-03  2.15221621E-02  8.35343220E-02  2.39582846E-01
  4.42852842E-01  3.51799562E-01 -5.94922494E-05 -1.14815831E-03 -1.00191374E-02
 -6.12194923E-02 -1.73269854E-01  1.07291519E+00  1.00000000E+00  1.00000000E+00
  3.94263872E-02  2.44088985E-01  8.15492009E-01  1.00000000E+00  1.00000000E+00
  1.00000000E+00  1.00000000E+00  1.00000000E+00  5.41978320E-04  4.19287382E-03
  2.15221621E-02  8.35343220E-02  2.39582846E-01  4.42852842E-01  3.51799562E-01
 -5.94922494E-05 -1.14815831E-03 -1.00191374E-02 -6.12194923E-02 -1.73269854E-01
  1.07291519E+00  1.00000000E+00  1.00000000E+00  3.94263872E-02  2.44088985E-01
  8.15492009E-01  1.00000000E+00  1.00000000E+00  1.00000000E+00  1.00000000E+00
  1.00000000E+00  5.41978320E-04  4.19287382E-03  2.15221621E-02  8.35343220E-02
  2.39582846E-01  4.42852842E-01  3.51799562E-01 -5.94922494E-05 -1.14815831E-03
 -1.00191374E-02 -6.12194923E-02 -1.73269854E-01  1.07291519E+00  1.00000000E+00
  1.00000000E+00  3.94263872E-02  2.44088985E-01  8.15492009E-01  1.00000000E+00
  1.00000000E+00  1.00000000E+00  1.00000000E+00  1.00000000E+00  5.41978320E-04
  4.19287382E-03  2.15221621E-02  8.35343220E-02  2.39582846E-01  4.42852842E-01
  3.51799562E-01 -5.94922494E-05 -1.14815831E-03 -1.00191374E-02 -6.12194923E-02
 -1.73269854E-01  1.07291519E+00  1.00000000E+00  1.00000000E+00  3.94263872E-02
  2.44088985E-01  8.15492009E-01  1.00000000E+00  1.00000000E+00  1.00000000E+00
  1.00000000E+00  1.00000000E+00  5.41978320E-04  4.19287382E-03  2.15221621E-02
  8.35343220E-02  2.39582846E-01  4.42852842E-01  3.51799562E-01 -5.94922494E-05
 -1.14815831E-03 -1.00191374E-02 -6.12194923E-02 -1.73269854E-01  1.07291519E+00
  1.00000000E+00  1.00000000E+00  3.94263872E-02  2.44088985E-01  8.15492009E-01
  1.00000000E+00  1.00000000E+00  1.00000000E+00  1.00000000E+00  1.00000000E+00
  5.41978320E-04  4.19287382E-03  2.15221621E-02  8.35343220E-02  2.39582846E-01
  4.42852842E-01  3.51799562E-01 -5.94922494E-05 -1.14815831E-03 -1.00191374E-02
 -6.12194923E-02 -1.73269854E-01  1.07291519E+00  1.00000000E+00  1.00000000E+00
  3.94263872E-02  2.44088985E-01  8.15492009E-01  1.00000000E+00  1.00000000E+00
  1.00000000E+00  1.00000000E+00  1.00000000E+00  2.54948632E-02  1.90362766E-01
  8.52162022E-01  1.00000000E+00  1.00000000E+00  1.00000000E+00  1.00000000E+00
  1.00000000E+00  2.54948632E-02  1.90362766E-01  8.52162022E-01  1.00000000E+00
  1.00000000E+00  1.00000000E+00  1.00000000E+00  1.00000000E+00  2.54948632E-02
  1.90362766E-01  8.52162022E-01  1.00000000E+00  1.00000000E+00  1.00000000E+00
  1.00000000E+00  1.00000000E+00  2.54948632E-02  1.90362766E-01  8.52162022E-01
  1.00000000E+00  1.00000000E+00  1.00000000E+00  1.00000000E+00  1.00000000E+00
  2.54948632E-02  1.90362766E-01  8.52162022E-01  1.00000000E+00  1.00000000E+00
  1.00000000E+00  1.00000000E+00  1.00000000E+00  2.54948632E-02  1.90362766E-01
  8.52162022E-01  1.00000000E+00  1.00000000E+00  1.00000000E+00  1.00000000E+00
  1.00000000E+00
Coordinates of each shell                  R   N=         288
  0.00000000E+00  0.00000000E+00  2.63256991E+00  0.00000000E+00  0.00000000E+00
  2.63256991E+00  0.00000000E+00  0.00000000E+00  2.63256991E+00  0.00000000E+00
  0.00000000E+00  2.63256991E+00  0.00000000E+00  0.00000000E+00  2.63256991E+00
  0.00000000E+00  0.00000000E+00  2.63256991E+00  0.00000000E+00  0.00000000E+00
  2.63256991E+00  0.00000000E+00  0.00000000E+00  2.63256991E+00  0.00000000E+00
  0.00000000E+00  2.63256991E+00  0.00000000E+00  0.00000000E+00  2.63256991E+00
  0.00000000E+00  2.27987331E+00  1.31628495E+00  0.00000000E+00  2.27987331E+00
  1.31628495E+00  0.00000000E+00  2.27987331E+00  1.31628495E+00  0.00000000E+00
  2.27987331E+00  1.31628495E+00  0.00000000E+00  2.27987331E+00  1.31628495E+00
  0.00000000E+00  2.27987331E+00  1.31628495E+00  0.00000000E+00  2.27987331E+00
  1.31628495E+00  0.00000000E+00  2.27987331E+00  1.31628495E+00  0.00000000E+00
  2.27987331E+00  1.31628495E+00  0.00000000E+00  2.27987331E+00  1.31628495E+00
  1.61198415E-16  2.27987331E+00 -1.31628495E+00  1.61198415E-16  2.27987331E+00
 -1.31628495E+00  1.61198415E-16  2.27987331E+00 -1.31628495E+00  1.61198415E-16
  2.27987331E+00 -1.31628495E+00  1.61198415E-16  2.27987331E+00 -1.31628495E+00
  1.61198415E-16  2.27987331E+00 -1.31628495E+00  1.61198415E-16  2.27987331E+00
 -1.31628495E+00  1.61198415E-16  2.27987331E+00 -1.31628495E+00  1.61198415E-16
  2.27987331E+00 -1.31628495E+00  1.61198415E-16  2.27987331E+00 -1.31628495E+00
  3.22396831E-16  0.00000000E+00 -2.63256991E+00  3.22396831E-16  0.00000000E+00
 -2.63256991E+00  3.22396831E-16  0.00000000E+00 -2.63256991E+00  3.22396831E-16
  0.00000000E+00 -2.63256991E+00  3.22396831E-16  0.00000000E+00 -2.63256991E+00
  3.22396831E-16  0.00000000E+00 -2.63256991E+00  3.22396831E-16  0.00000000E+00
 -2.63256991E+00  3.22396831E-16  0.00000000E+00 -2.63256991E+00  3.22396831E-16
  0.00000000E+00 -2.63256991E+00  3.22396831E-16  0.00000000E+00 -2.63256991E+00
 -2.79203955E-16 -2.27987331E+00 -1.31628495E+00 -2.79203955E-16 -2.27987331E+00
 -1.31628495E+00 -2.79203955E-16 -2.27987331E+00 -1.31628495E+00 -2.79203955E-16
 -2.27987331E+00 -1.31628495E+00 -2.79203955E-16 -2.27987331E+00 -1.31628495E+00
 -2.79203955E-16 -2.27987331E+00 -1.31628495E+00 -2.79203955E-16 -2.27987331E+00
 -1.31628495E+00 -2.79203955E-16 -2.27987331E+00 -1.31628495E+00 -2.79203955E-16
 -2.27987331E+00 -1.31628495E+00 -2.79203955E-16 -2.27987331E+00 -1.31628495E+00
 -2.79203955E-16 -2.27987331E+00  1.31628495E+00 -2.79203955E-16 -2.27987331E+00
  1.31628495E+00 -2.79203955E-16 -2.27987331E+00  1.31628495E+00 -2.79203955E-16
 -2.27987331E+00  1.31628495E+00 -2.79203955E-16 -2.27987331E+00  1.31628495E+00
 -2.79203955E-16 -2.27987331E+00  1.31628495E+00 -2.79203955E-16 -2.27987331E+00
  1.31628495E+00 -2.79203955E-16 -2.27987331E+00  1.31628495E+00 -2.79203955E-16
 -2.27987331E+00  1.31628495E+00 -2.79203955E-16 -2.27987331E+00  1.31628495E+00
  0.00000000E+00  0.00000000E+00  4.69242996E+00  0.00000000E+00  0.00000000E+00
  4.69242996E+00  0.00000000E+00  0.00000000E+00  4.69242996E+00  0.00000000E+00
  0.00000000E+00  4.69242996E+00  0.00000000E+00  0.00000000E+00  4.69242996E+00
  0.00000000E+00  0.00000000E+00  4.69242996E+00  0.00000000E+00  4.06376154E+00
  2.34622537E+00  0.00000000E+00  4.06376154E+00  2.34622537E+00  0.00000000E+00
  4.06376154E+00  2.34622537E+00  0.00000000E+00  4.06376154E+00  2.34622537E+00
  0.00000000E+00  4.06376154E+00  2.34622537E+00  0.00000000E+00  4.06376154E+00
  2.34622537E+00  2.87329740E-16  4.06376154E+00 -2.34622537E+00  2.87329740E-16
  4.06376154E+00 -2.34622537E+00  2.87329740E-16  4.06376154E+00 -2.34622537E+00
  2.87329740E-16  4.06376154E+00 -2.34622537E+00  2.87329740E-16  4.06376154E+00
 -2.34622537E+00  2.87329740E-16  4.06376154E+00 -2.34622537E+00  5.74656933E-16
  0.00000000E+00 -4.69242996E+00  5.74656933E-16  0.00000000E+00 -4.69242996E+00
  5.74656933E-16  0.00000000E+00 -4.69242996E+00  5.74656933E-16  0.00000000E+00
 -4.69242996E+00  5.74656933E-16  0.00000000E+00 -4.69242996E+00  5.74656933E-16
  0.00000000E+00 -4.69242996E+00 -4.97667257E-16 -4.06376154E+00 -2.34622537E+00
 -4.97667257E-16 -4.06376154E+00 -2.34622537E+00 -4.97667257E-16 -4.06376154E+00
 -2.34622537E+00 -4.97667257E-16 -4.06376154E+00 -2.34622537E+00 -4.97667257E-16
 -4.06376154E+00 -2.34622537E+00 -4.97667257E-16 -4.06376154E+00 -2.34622537E+00
 -4.97667257E-16 -4.06376154E+00  2.34622537E+00 -4.97667257E-16 -4.06376154E+00
  2.34622537E+00 -4.97667257E-16 -4.06376154E+00  2.34622537E+00 -4.97667257E-16
 -4.06376154E+00  2.34622537E+00 -4.97667257E-16 -4.06376154E+00  2.34622537E+00
 -4.97667257E-16 -4.06376154E+00  2.34622537E+00
Num ILSW                                   I              100
ILSW                                       I   N=         100
           0           1           0           0           2           0
           0           0           0           0         402          -1
           5           0           0           1           0           0
           0           0           0           0           0           0
           1           0           0           0           0           0
           0           0      100000           0          -1           0
           0           0           0           0           0           0
           0           0           0           1           0           0
           0 -2000000000           1           0           0           0
           0           0           4          52           0           0
           0           0           5           0           0           0
           0           0           0          12           0           1
           0           0           0           0           0           0
           0           0           0           0           0           0
           0           0           0           0           0           0
           0           0           0           0           0           0
           0           0           0           0
Num RLSW                                   I               52
RLSW                                       R   N=          52
  8.00000000E-01  7.20000000E-01  1.00000000E+00  8.10000000E-01  2.00000000E-01
  0.00000000E+00  0.00000000E+00  1.00000000E+00  0.00000000E+00  0.00000000E+00
  0.00000000E+00  0.00000000E+00  1.00000000E+00  0.00000000E+00  0.00000000E+00
  0.00000000E+00  0.00000000E+00  1.00000000E+00  0.00000000E+00  0.00000000E+00
  0.00000000E+00  0.00000000E+00  1.00000000E+00  0.00000000E+00  0.00000000E+00
  0.00000000E+00  0.00000000E+00  1.00000000E+00  0.00000000E+00  0.00000000E+00
  0.00000000E+00  0.00000000E+00  1.00000000E+00  0.00000000E+00  0.00000000E+00
  0.00000000E+00  0.00000000E+00  0.00000000E+00  1.00000000E+00  1.00000000E+00
  0.00000000E+00  1.00000000E+00  0.00000000E+00  0.00000000E+00  0.00000000E+00
  0.00000000E+00  0.00000000E+00  0.00000000E+00  0.00000000E+00  0.00000000E+00
  0.00000000E+00  0.00000000E+00
MxBond                                     I                3
NBond                                      I   N=          12
           3           3           3           3           3           3
           1           1           1           1           1           1
IBond                                      I   N=          36
           2           6           7           1           3           8
           2           4           9           3           5          10
           4           6          11           1           5          12
           1           0           0           2           0           0
           3           0           0           4           0           0
           5           0           0           6           0           0
RBond                                      R   N=          36
  1.50000000E+00  1.50000000E+00  1.00000000E+00  1.50000000E+00  1.50000000E+00
  1.00000000E+00  1.50000000E+00  1.50000000E+00  1.00000000E+00  1.50000000E+00
  1.50000000E+00  1.00000000E+00  1.50000000E+00  1.50000000E+00  1.00000000E+00
  1.50000000E+00  1.50000000E+00  1.00000000E+00  1.00000000E+00  0.00000000E+00
  0.00000000E+00  1.00000000E+00  0.00000000E+00  0.00000000E+00  1.00000000E+00
  0.00000000E+00  0.00000000E+00  1.00000000E+00  0.00000000E+00  0.00000000E+00
  1.00000000E+00  0.00000000E+00  0.00000000E+00  1.00000000E+00  0.00000000E+00
  0.00000000E+00
Virial Ratio                               R      2.006921632031624E+00
SCF Energy                                 R     -2.323373500849589E+02
Total Energy                               R     -2.323373500849589E+02
RMS Density                                R      8.472728885995676E-09
Job Status                                 I                1
Nuclear derivative order                   I                0
External E-field                           R   N=          35
  0.00000000E+00  0.00000000E+00  0.00000000E+00  0.00000000E+00  0.00000000E+00
  0.00000000E+00  0.00000000E+00  0.00000000E+00  0.00000000E+00  0.00000000E+00
  0.00000000E+00  0.00000000E+00  0.00000000E+00  0.00000000E+00  0.00000000E+00
  0.00000000E+00  0.00000000E+00  0.00000000E+00  0.00000000E+00  0.00000000E+00
  0.00000000E+00  0.00000000E+00  0.00000000E+00  0.00000000E+00  0.00000000E+00
  0.00000000E+00  0.00000000E+00  0.00000000E+00  0.00000000E+00  0.00000000E+00
  0.00000000E+00  0.00000000E+00  0.00000000E+00  0.00000000E+00  0.00000000E+00
IOpCl                                      I                0
IROHF                                      I                0
Alpha Orbital Energies                     R   N=         300
 -1.01812112E+01 -1.01809751E+01 -1.01809751E+01 -1.01804004E+01 -1.01804003E+01
 -1.01801508E+01 -8.57484173E-01 -7.48704471E-01 -7.48704368E-01 -6.05141487E-01
 -6.05141034E-01 -5.26403530E-01 -4.62438283E-01 -4.50920597E-01 -4.24608706E-01
 -4.24608489E-01 -3.72565610E-01 -3.47759096E-01 -3.47758232E-01 -2.59054619E-01
 -2.59054509E-01 -1.37628895E-02 -1.37628005E-02  3.62791026E-02  6.89254533E-02
  6.89255961E-02  1.00017477E-01  1.00017889E-01  1.25914279E-01  1.41941831E-01
  1.80480947E-01  2.29759529E-01  2.29760066E-01  2.50524699E-01  2.58835274E-01
  2.59178159E-01  2.59179119E-01  3.03433881E-01  3.03436632E-01  3.04741443E-01
  3.04743842E-01  3.10077847E-01  3.84322747E-01  3.90364475E-01  3.90365033E-01
  3.91683904E-01  3.91684469E-01  4.24733665E-01  4.24734278E-01  4.45485251E-01
  4.70329114E-01  4.70330308E-01  4.71431518E-01  4.81911249E-01  4.94300902E-01
  5.30225073E-01  5.30226727E-01  5.31848097E-01  5.54749770E-01  5.54749967E-01
  6.49638326E-01  6.72726157E-01  6.72726857E-01  7.05753030E-01  7.05757705E-01
  7.06654297E-01  7.33403538E-01  7.59595398E-01  7.59596544E-01  7.84385886E-01
  8.39355281E-01  8.39359255E-01  8.88600235E-01  9.08115357E-01  9.22027023E-01
  9.52857584E-01  1.00011522E+00  1.00012300E+00  1.00035014E+00  1.00035095E+00
  1.00313162E+00  1.00313206E+00  1.01704817E+00  1.08463185E+00  1.08463271E+00
  1.13099575E+00  1.13109774E+00  1.13109874E+00  1.18717959E+00  1.18718167E+00
  1.23699281E+00  1.23699564E+00  1.23792835E+00  1.23793071E+00  1.24862060E+00
  1.25969816E+00  1.25970067E+00  1.26094141E+00  1.32418508E+00  1.32418645E+00
  1.34804379E+00  1.36267145E+00  1.36267330E+00  1.36858834E+00  1.36859104E+00
  1.43175667E+00  1.49356194E+00  1.52462395E+00  1.57457997E+00  1.58025487E+00
  1.69974434E+00  1.69974721E+00  1.76806897E+00  1.76807174E+00  1.82673421E+00
  1.87559214E+00  1.87602929E+00  1.87603379E+00  1.93120077E+00  1.93120203E+00
  2.00393894E+00  2.00556469E+00  2.06086883E+00  2.06087215E+00  2.19323992E+00
  2.19324439E+00  2.28809858E+00  2.29117915E+00  2.29117927E+00  2.37149658E+00
  2.38277437E+00  2.38277729E+00  2.39508711E+00  2.40981453E+00  2.45894208E+00
  2.56482330E+00  2.56482413E+00  2.60271283E+00  2.60340269E+00  2.60340792E+00
  2.61476518E+00  2.61476691E+00  2.67830358E+00  2.67830368E+00  2.68083305E+00
  2.73515985E+00  2.73693851E+00  2.73693939E+00  2.77276702E+00  2.77276898E+00
  2.81430777E+00  2.81430908E+00  2.89967166E+00  2.89967226E+00  2.90209312E+00
  2.93570293E+00  2.93570404E+00  2.94234556E+00  2.94234905E+00  2.94763756E+00
  3.01369423E+00  3.03530398E+00  3.04152350E+00  3.04152501E+00  3.04470584E+00
  3.04470641E+00  3.04588538E+00  3.11268780E+00  3.11268945E+00  3.13716186E+00
  3.18279019E+00  3.18279039E+00  3.24352299E+00  3.26032839E+00  3.28025353E+00
  3.28422596E+00  3.28422683E+00  3.29119613E+00  3.29120010E+00  3.31020161E+00
  3.36190279E+00  3.36190614E+00  3.36837609E+00  3.40119561E+00  3.40119674E+00
  3.44541449E+00  3.46471710E+00  3.46471960E+00  3.55622629E+00  3.55622906E+00
  3.56271831E+00  3.56751158E+00  3.59233418E+00  3.66114777E+00  3.66115041E+00
  3.69047922E+00  3.69048236E+00  3.69297628E+00  3.71316105E+00  3.76529702E+00
  3.81875053E+00  3.82210188E+00  3.82210412E+00  3.83952949E+00  3.84944990E+00
  3.84945076E+00  3.93367955E+00  3.93368175E+00  3.96263500E+00  3.96263834E+00
  3.96448839E+00  3.97113284E+00  3.97113798E+00  4.04922966E+00  4.04923168E+00
  4.08450740E+00  4.08875698E+00  4.08876432E+00  4.08924856E+00  4.09655452E+00
  4.13060734E+00  4.13061020E+00  4.13656924E+00  4.21680746E+00  4.21680924E+00
  4.27390411E+00  4.27390630E+00  4.32137211E+00  4.32137815E+00  4.33718262E+00
  4.35617339E+00  4.36052747E+00  4.36053149E+00  4.36449022E+00  4.36449207E+00
  4.45138785E+00  4.45138911E+00  4.50148611E+00  4.50148768E+00  4.57193168E+00