High Angular Momentum Test                                              
SP        RB3LYP                                                      CC-pVQZ             
Number of atoms                            I                3
Info1-9                                    I   N=           9
          14          12           0           0           0         110
           1          18        -502
Full Title                                 C   N=           3
High Angular Momentum Test          
Route                                      C   N=           4
#p B3LYP/cc-pVQZ out=wfx gfinput pop=full       
Charge                                     I                0
Multiplicity                               I                1
Number of electrons                        I               10
Number of alpha electrons                  I                5
Number of beta electrons                   I                5
Number of basis functions                  I              115
Number of independent functions            I              115
Number of point charges in /Mol/           I                0
Number of translation vectors              I                0
Atomic numbers                             I   N=           3
           8           1           1
Nuclear charges                            R   N=           3
  8.00000000E+00  1.00000000E+00  1.00000000E+00
Current cartesian coordinates              R   N=           9
 -1.36974584E-33  1.12753679E-32  2.21475902E-01 -6.83992481E-34  1.43052268E+00
 -8.85903607E-01 -1.75188502E-16 -1.43052268E+00 -8.85903607E-01
Number of symbols in /Mol/                 I                0
Force Field                                I                0
Atom Types                                 C   N=           3
                                    
Int Atom Types                             I   N=           3
           0           0           0
MM charges                                 R   N=           3
  0.00000000E+00  0.00000000E+00  0.00000000E+00
Integer atomic weights                     I   N=           3
          16           1           1
Real atomic weights                        R   N=           3
  1.59949146E+01  1.00782504E+00  1.00782504E+00
Atom fragment info                         I   N=           3
           0           0           0
Atom residue num                           I   N=           3
           0           0           0
Nuclear spins                              I   N=           3
           0           1           1
Nuclear ZEff                               R   N=           3
 -5.60000000E+00 -1.00000000E+00 -1.00000000E+00
Nuclear ZNuc                               R   N=           3
  8.00000000E+00  1.00000000E+00  1.00000000E+00
Nuclear QMom                               R   N=           3
  0.00000000E+00  0.00000000E+00  0.00000000E+00
Nuclear GFac                               R   N=           3
  0.00000000E+00  2.79284600E+00  2.79284600E+00
MicOpt                                     I   N=           3
          -1          -1          -1
Number of residues                         I                0
Number of secondary structures             I                0
SymInf integers                            I   N=          26
           2           4           1           1           1          -1
          -1           1          -1           1           1           1
          -1           1           0           0           0           0
           0           0           0           0           0           0
           0           0
RotTr to input orientation                 R   N=          12
 -1.00000000E+00 -3.06161700E-16  6.12323400E-17 -3.06161700E-16  1.00000000E+00
 -1.83697020E-16 -6.12323400E-17 -1.83697020E-16 -1.00000000E+00  0.00000000E+00
  0.00000000E+00  2.21475902E-01
Number of contracted shells                I               35
Number of primitive shells                 I               54
Pure/Cartesian d shells                    I                0
Pure/Cartesian f shells                    I                0
Highest angular momentum                   I                4
Largest degree of contraction              I                8
Shell types                                I   N=          35
           0           0           0           0           0           1
           1           1           1          -2          -2          -2
          -3          -3          -4           0           0           0
           0           1           1           1          -2          -2
          -3           0           0           0           0           1
           1           1          -2          -2          -3
Number of primitives per shell             I   N=          35
           8           7           1           1           1           3
           1           1           1           1           1           1
           1           1           1           3           1           1
           1           1           1           1           1           1
           1           3           1           1           1           1
           1           1           1           1           1
Shell to atom map                          I   N=          35
           1           1           1           1           1           1
           1           1           1           1           1           1
           1           1           1           2           2           2
           2           2           2           2           2           2
           2           3           3           3           3           3
           3           3           3           3           3
Primitive exponents                        R   N=          54
  6.14200000E+04  9.19900000E+03  2.09100000E+03  5.90900000E+02  1.92300000E+02
  6.93200000E+01  2.69700000E+01  1.11000000E+01  9.19900000E+03  5.90900000E+02
  1.92300000E+02  6.93200000E+01  2.69700000E+01  1.11000000E+01  4.68200000E+00
  1.42800000E+00  5.54700000E-01  2.06700000E-01  6.34200000E+01  1.46600000E+01
  4.45900000E+00  1.53100000E+00  5.30200000E-01  1.75000000E-01  3.77500000E+00
  1.30000000E+00  4.44000000E-01  2.66600000E+00  8.59000000E-01  1.84600000E+00
  8.26400000E+01  1.24100000E+01  2.82400000E+00  7.97700000E-01  2.58100000E-01
  8.98900000E-02  2.29200000E+00  8.38000000E-01  2.92000000E-01  2.06200000E+00
  6.62000000E-01  1.39700000E+00  8.26400000E+01  1.24100000E+01  2.82400000E+00
  7.97700000E-01  2.58100000E-01  8.98900000E-02  2.29200000E+00  8.38000000E-01
  2.92000000E-01  2.06200000E+00  6.62000000E-01  1.39700000E+00
Contraction coefficients                   R   N=          54
  1.55518410E-04  1.18440583E-03  6.24876910E-03  2.55912766E-02  8.77566935E-02
  2.30729100E-01  4.42804305E-01  3.33680462E-01 -7.85827887E-06 -4.74592902E-04
 -2.15916299E-03 -2.37542047E-02 -1.01921529E-01 -4.53228587E-01 -4.84793012E-01
  1.00000000E+00  1.00000000E+00  1.00000000E+00  3.13275025E-02  2.16654248E-01
  8.35242842E-01  1.00000000E+00  1.00000000E+00  1.00000000E+00  1.00000000E+00
  1.00000000E+00  1.00000000E+00  1.00000000E+00  1.00000000E+00  1.00000000E+00
  2.29507578E-02  1.75540118E-01  8.64703551E-01  1.00000000E+00  1.00000000E+00
  1.00000000E+00  1.00000000E+00  1.00000000E+00  1.00000000E+00  1.00000000E+00
  1.00000000E+00  1.00000000E+00  2.29507578E-02  1.75540118E-01  8.64703551E-01
  1.00000000E+00  1.00000000E+00  1.00000000E+00  1.00000000E+00  1.00000000E+00
  1.00000000E+00  1.00000000E+00  1.00000000E+00  1.00000000E+00
Coordinates of each shell                  R   N=         105
 -6.82475314E-34  6.82475314E-33  2.21475902E-01 -6.82475314E-34  6.82475314E-33
  2.21475902E-01 -6.82475314E-34  6.82475314E-33  2.21475902E-01 -6.82475314E-34
  6.82475314E-33  2.21475902E-01 -6.82475314E-34  6.82475314E-33  2.21475902E-01
 -6.82475314E-34  6.82475314E-33  2.21475902E-01 -6.82475314E-34  6.82475314E-33
  2.21475902E-01 -6.82475314E-34  6.82475314E-33  2.21475902E-01 -6.82475314E-34
  6.82475314E-33  2.21475902E-01 -6.82475314E-34  6.82475314E-33  2.21475902E-01
 -6.82475314E-34  6.82475314E-33  2.21475902E-01 -6.82475314E-34  6.82475314E-33
  2.21475902E-01 -6.82475314E-34  6.82475314E-33  2.21475902E-01 -6.82475314E-34
  6.82475314E-33  2.21475902E-01 -6.82475314E-34  6.82475314E-33  2.21475902E-01
  0.00000000E+00  1.43052268E+00 -8.85903607E-01  0.00000000E+00  1.43052268E+00
 -8.85903607E-01  0.00000000E+00  1.43052268E+00 -8.85903607E-01  0.00000000E+00
  1.43052268E+00 -8.85903607E-01  0.00000000E+00  1.43052268E+00 -8.85903607E-01
  0.00000000E+00  1.43052268E+00 -8.85903607E-01  0.00000000E+00  1.43052268E+00
 -8.85903607E-01  0.00000000E+00  1.43052268E+00 -8.85903607E-01  0.00000000E+00
  1.43052268E+00 -8.85903607E-01  0.00000000E+00  1.43052268E+00 -8.85903607E-01
 -1.75188502E-16 -1.43052268E+00 -8.85903607E-01 -1.75188502E-16 -1.43052268E+00
 -8.85903607E-01 -1.75188502E-16 -1.43052268E+00 -8.85903607E-01 -1.75188502E-16
 -1.43052268E+00 -8.85903607E-01 -1.75188502E-16 -1.43052268E+00 -8.85903607E-01
 -1.75188502E-16 -1.43052268E+00 -8.85903607E-01 -1.75188502E-16 -1.43052268E+00
 -8.85903607E-01 -1.75188502E-16 -1.43052268E+00 -8.85903607E-01 -1.75188502E-16
 -1.43052268E+00 -8.85903607E-01 -1.75188502E-16 -1.43052268E+00 -8.85903607E-01
Num ILSW                                   I              100
ILSW                                       I   N=         100
           0           0           0           0           2           0
           0           0           0           0         402          -1
           5           0           0           0           0           0
           0           0           0           0           0           0
           1           0           0           0           0           0
           0           0      100000           0          -1           0
           0           0           0           0           0           0
           0           0           0           1           0           0
           0 -2000000000           1           0           0           0
           0           0           4          52           0           0
           0           0           5           0           0           0
           0           0           0           3           0           1
           0           0           0           0           0           0
           0           0           0           0           0           0
           0           0           0           0           0           0
           0           0           0           0           0           0
           0           0           0           0
Num RLSW                                   I               52
RLSW                                       R   N=          52
  8.00000000E-01  7.20000000E-01  1.00000000E+00  8.10000000E-01  2.00000000E-01
  0.00000000E+00  0.00000000E+00  1.00000000E+00  0.00000000E+00  0.00000000E+00
  0.00000000E+00  0.00000000E+00  1.00000000E+00  0.00000000E+00  0.00000000E+00
  0.00000000E+00  0.00000000E+00  1.00000000E+00  0.00000000E+00  0.00000000E+00
  0.00000000E+00  0.00000000E+00  1.00000000E+00  0.00000000E+00  0.00000000E+00
  0.00000000E+00  0.00000000E+00  1.00000000E+00  0.00000000E+00  0.00000000E+00
  0.00000000E+00  0.00000000E+00  1.00000000E+00  0.00000000E+00  0.00000000E+00
  0.00000000E+00  0.00000000E+00  0.00000000E+00  1.00000000E+00  1.00000000E+00
  0.00000000E+00  1.00000000E+00  0.00000000E+00  0.00000000E+00  0.00000000E+00
  0.00000000E+00  0.00000000E+00  0.00000000E+00  0.00000000E+00  0.00000000E+00
  0.00000000E+00  0.00000000E+00
MxBond                                     I                2
NBond                                      I   N=           3
           2           1           1
IBond                                      I   N=           6
           2           3           1           0           1           0
RBond                                      R   N=           6
  1.00000000E+00  1.00000000E+00  1.00000000E+00  0.00000000E+00  1.00000000E+00
  0.00000000E+00
Virial Ratio                               R      2.003689163932752E+00
SCF Energy                                 R     -7.646962393283619E+01
Total Energy                               R     -7.646962393283619E+01
RMS Density                                R      2.093253724516382E-09
Job Status                                 I                1
Nuclear derivative order                   I                0
External E-field                           R   N=          35
  0.00000000E+00  0.00000000E+00  0.00000000E+00  0.00000000E+00  0.00000000E+00
  0.00000000E+00  0.00000000E+00  0.00000000E+00  0.00000000E+00  0.00000000E+00
  0.00000000E+00  0.00000000E+00  0.00000000E+00  0.00000000E+00  0.00000000E+00
  0.00000000E+00  0.00000000E+00  0.00000000E+00  0.00000000E+00  0.00000000E+00
  0.00000000E+00  0.00000000E+00  0.00000000E+00  0.00000000E+00  0.00000000E+00
  0.00000000E+00  0.00000000E+00  0.00000000E+00  0.00000000E+00  0.00000000E+00
  0.00000000E+00  0.00000000E+00  0.00000000E+00  0.00000000E+00  0.00000000E+00
IOpCl                                      I                0
IROHF                                      I                0
Alpha Orbital Energies                     R   N=         115
 -1.91250332E+01 -1.01614315E+00 -5.35298100E-01 -3.93468502E-01 -3.17615244E-01
  1.05170740E-02  7.92807627E-02  2.97484815E-01  3.26983028E-01  3.36690858E-01
  4.14311551E-01  4.56327271E-01  4.61121513E-01  5.01833428E-01  5.65467489E-01
  6.71885315E-01  7.69240856E-01  9.24796937E-01  9.62635581E-01  1.16151937E+00
  1.20694198E+00  1.26286432E+00  1.26746302E+00  1.36008294E+00  1.42854059E+00
  1.64349914E+00  1.83753851E+00  1.95707775E+00  2.04735565E+00  2.13447432E+00
  2.14265949E+00  2.26056928E+00  2.27174742E+00  2.29574287E+00  2.35707357E+00
  2.40706444E+00  2.43290578E+00  2.55881908E+00  2.59560299E+00  2.73661737E+00
  2.85073825E+00  3.01220097E+00  3.03208895E+00  3.14468412E+00  3.30671128E+00
  3.46632258E+00  3.65189183E+00  3.75364250E+00  3.82227523E+00  3.85108148E+00
  4.08337560E+00  4.10722394E+00  4.33120512E+00  4.38824841E+00  4.44718618E+00
  4.56094490E+00  4.96414029E+00  5.02423469E+00  5.66077041E+00  5.77375268E+00
  5.93610704E+00  6.00291923E+00  6.37299581E+00  6.45174594E+00  6.70444004E+00
  6.88288477E+00  6.94277290E+00  7.02594312E+00  7.06929007E+00  7.15853455E+00
  7.20242298E+00  7.22166825E+00  7.63273592E+00  7.67412987E+00  7.71603764E+00
  7.76209486E+00  7.77832246E+00  7.89839309E+00  7.94835997E+00  7.96516680E+00
  8.02534866E+00  8.24794855E+00  8.40764305E+00  8.48606924E+00  8.53805363E+00
  8.81092311E+00  8.93606635E+00  9.01105905E+00  9.36541277E+00  9.45678215E+00
  9.78236920E+00  9.93410429E+00  9.99577516E+00  1.02471301E+01  1.02994120E+01
  1.07592211E+01  1.08848903E+01  1.10024161E+01  1.10894455E+01  1.11125137E+01
  1.12597864E+01  1.16191339E+01  1.17279940E+01  1.18365884E+01  1.18440850E+01
  1.19039658E+01  1.30079311E+01  1.32841706E+01  1.36886498E+01  1.40474747E+01
  1.40689379E+01  1.42293417E+01  1.58261874E+01  1.61902981E+01  4.28642074E+01
Alpha MO coefficients                      R   N=       13225
  5.85845449E-01 -4.42984195E-01  3.72358278E-02 -2.42361533E-02 -8.81644499E-03
  0.00000000E+00  0.00000000E+00 -1.00769496E-03  0.00000000E+00  0.00000000E+00
 -2.35063436E-03  0.00000000E+00  0.00000000E+00  1.02543748E-02  0.00000000E+00
  0.00000000E+00  2.37272157E-03  1.23201873E-04  0.00000000E+00  0.00000000E+00
 -5.41220689E-04  0.00000000E+00 -3.61870050E-04  0.00000000E+00  0.00000000E+00
  9.39325050E-04  0.00000000E+00 -3.43218571E-04  0.00000000E+00  0.00000000E+00
  4.38800300E-03  0.00000000E+00  2.24943347E-04  0.00000000E+00  0.00000000E+00
  4.53447101E-04  0.00000000E+00  0.00000000E+00  0.00000000E+00 -1.24142127E-03
  0.00000000E+00  0.00000000E+00 -2.76708107E-03  0.00000000E+00  0.00000000E+00
  0.00000000E+00  2.55435134E-04  0.00000000E+00  0.00000000E+00  3.69419829E-04
  0.00000000E+00  0.00000000E+00  0.00000000E+00 -1.51496924E-04  0.00000000E+00
 -2.67932294E-04  6.81705629E-03  7.05769640E-03 -2.68780140E-04  0.00000000E+00
 -3.50215293E-04  3.42632873E-04  0.00000000E+00 -2.86531594E-03  2.13717133E-03
  0.00000000E+00 -1.78827032E-03  1.56060415E-03 -4.60937386E-05  0.00000000E+00
 -1.35260361E-04 -8.47304962E-05  0.00000000E+00  1.11633581E-05  0.00000000E+00
  3.98148939E-05 -1.24810348E-04  0.00000000E+00  1.93010724E-04  0.00000000E+00
  4.46966355E-04  6.55667603E-04  0.00000000E+00  0.00000000E+00 -2.93842552E-04
 -2.67932294E-04  6.81705629E-03  7.05769640E-03 -2.68780140E-04  0.00000000E+00
  3.50215293E-04  3.42632873E-04  0.00000000E+00  2.86531594E-03  2.13717133E-03
  0.00000000E+00  1.78827032E-03  1.56060415E-03 -4.60937386E-05  0.00000000E+00
  1.35260361E-04 -8.47304962E-05  0.00000000E+00  1.11633581E-05  0.00000000E+00
 -3.98148939E-05 -1.24810348E-04  0.00000000E+00  1.93010724E-04  0.00000000E+00
 -4.46966355E-04  6.55667603E-04  0.00000000E+00  0.00000000E+00  2.93842552E-04
 -1.22004248E-01  2.07383696E-01  2.52825231E-01  4.69682508E-01  1.97116159E-01
  0.00000000E+00  0.00000000E+00 -3.27606530E-02  0.00000000E+00  0.00000000E+00
 -6.05134660E-02  0.00000000E+00  0.00000000E+00 -6.50234159E-02  0.00000000E+00
  0.00000000E+00 -9.38934147E-03  4.58192092E-04  0.00000000E+00  0.00000000E+00
 -1.14176457E-03  0.00000000E+00  2.12516901E-03  0.00000000E+00  0.00000000E+00
 -6.41262884E-03  0.00000000E+00  2.66164370E-03  0.00000000E+00  0.00000000E+00
 -5.12798919E-03  0.00000000E+00  4.26767588E-04  0.00000000E+00  0.00000000E+00
  1.04670742E-03  0.00000000E+00  0.00000000E+00  0.00000000E+00  3.22237093E-04
  0.00000000E+00  0.00000000E+00  1.83568392E-03  0.00000000E+00  0.00000000E+00
  0.00000000E+00 -1.91617702E-04  0.00000000E+00  0.00000000E+00 -3.28942395E-04
  0.00000000E+00  0.00000000E+00  0.00000000E+00  1.14551510E-04  0.00000000E+00
  3.77722203E-02  8.62659517E-02  5.76206689E-02  5.25586850E-03  0.00000000E+00
 -5.60775254E-03  3.68968313E-03  0.00000000E+00 -1.03234981E-02  6.53555650E-03
  0.00000000E+00 -7.74522867E-03  3.72960004E-03 -6.64139544E-05  0.00000000E+00
 -1.97752579E-03 -1.56161493E-03  0.00000000E+00 -9.01200479E-05  0.00000000E+00
 -1.90250745E-03 -1.66614058E-03  0.00000000E+00 -3.42775237E-04  0.00000000E+00
 -2.54825744E-04 -6.93139581E-04  0.00000000E+00  0.00000000E+00  5.15528206E-04
  3.77722203E-02  8.62659517E-02  5.76206689E-02  5.25586850E-03  0.00000000E+00
  5.60775254E-03  3.68968313E-03  0.00000000E+00  1.03234981E-02  6.53555650E-03
  0.00000000E+00  7.74522867E-03  3.72960004E-03 -6.64139544E-05  0.00000000E+00
  1.97752579E-03 -1.56161493E-03  0.00000000E+00 -9.01200479E-05  0.00000000E+00
  1.90250745E-03 -1.66614058E-03  0.00000000E+00 -3.42775237E-04  0.00000000E+00
  2.54825744E-04 -6.93139581E-04  0.00000000E+00  0.00000000E+00 -5.15528206E-04
  0.00000000E+00  0.00000000E+00  0.00000000E+00  0.00000000E+00  0.00000000E+00
  0.00000000E+00  1.50708790E-01  0.00000000E+00  0.00000000E+00  2.65140315E-01
  0.00000000E+00  0.00000000E+00  2.91125064E-01  0.00000000E+00  0.00000000E+00
  1.13178050E-01  0.00000000E+00  0.00000000E+00  0.00000000E+00 -4.53942706E-03
  0.00000000E+00  0.00000000E+00  0.00000000E+00  0.00000000E+00 -1.48788016E-02
  0.00000000E+00  0.00000000E+00  0.00000000E+00  0.00000000E+00 -1.58056951E-02
  0.00000000E+00  0.00000000E+00  0.00000000E+00  0.00000000E+00  5.35906940E-04
  0.00000000E+00  0.00000000E+00  0.00000000E+00 -1.28005555E-03  0.00000000E+00
  0.00000000E+00  3.63469164E-04  0.00000000E+00  0.00000000E+00  0.00000000E+00
 -3.01449507E-03  0.00000000E+00  0.00000000E+00  3.25321829E-04  0.00000000E+00
  0.00000000E+00  0.00000000E+00  6.54666172E-04  0.00000000E+00  0.00000000E+00
  5.71780002E-02  1.44606966E-01  1.72888647E-01  5.06696341E-02  0.00000000E+00
 -3.92574834E-03  5.23536658E-03  0.00000000E+00 -7.59950259E-03  1.23618398E-02
  0.00000000E+00 -7.21765461E-03  1.30081836E-02  9.44461916E-04  0.00000000E+00
 -2.42386208E-03 -7.83236070E-04  0.00000000E+00  1.67108851E-03  0.00000000E+00
 -4.43198613E-03 -2.32207780E-03  0.00000000E+00 -2.53889603E-04  0.00000000E+00
 -9.88825049E-04 -9.17225333E-04  0.00000000E+00  0.00000000E+00  2.55206394E-04
 -5.71780002E-02 -1.44606966E-01 -1.72888647E-01 -5.06696341E-02  0.00000000E+00
 -3.92574834E-03 -5.23536658E-03  0.00000000E+00 -7.59950259E-03 -1.23618398E-02
  0.00000000E+00 -7.21765461E-03 -1.30081836E-02 -9.44461916E-04  0.00000000E+00
 -2.42386208E-03  7.83236070E-04  0.00000000E+00 -1.67108851E-03  0.00000000E+00
 -4.43198613E-03  2.32207780E-03  0.00000000E+00  2.53889603E-04  0.00000000E+00
 -9.88825049E-04  9.17225333E-04  0.00000000E+00  0.00000000E+00  2.55206394E-04
 -4.57184414E-02  8.02394908E-02  1.06229502E-01  1.86009786E-01  1.53615096E-01
  0.00000000E+00  0.00000000E+00  1.62507222E-01  0.00000000E+00  0.00000000E+00
  2.86722801E-01  0.00000000E+00  0.00000000E+00  3.39095018E-01  0.00000000E+00
  0.00000000E+00  2.48404428E-01 -2.32989708E-03  0.00000000E+00  0.00000000E+00
  1.18886527E-03  0.00000000E+00 -7.82855703E-03  0.00000000E+00  0.00000000E+00
  1.87314958E-03  0.00000000E+00 -1.71030982E-02  0.00000000E+00  0.00000000E+00
  9.66850874E-03  0.00000000E+00 -1.70991050E-04  0.00000000E+00  0.00000000E+00
 -1.31703573E-03  0.00000000E+00  0.00000000E+00  0.00000000E+00  3.92357520E-04
  0.00000000E+00  0.00000000E+00 -3.21345017E-03  0.00000000E+00  0.00000000E+00
  0.00000000E+00  2.51997716E-04  0.00000000E+00  0.00000000E+00  5.45866264E-04
  0.00000000E+00  0.00000000E+00  0.00000000E+00 -1.43756659E-04  0.00000000E+00
 -3.29962408E-02 -8.54201894E-02 -5.71030220E-02 -1.60379824E-02  0.00000000E+00
  4.36607915E-03  1.00843327E-03  0.00000000E+00  7.02351318E-03  5.36494559E-03
  0.00000000E+00 -6.76171103E-03  3.21109055E-02  1.28605343E-03  0.00000000E+00
  7.21351460E-04  1.42064135E-03  0.00000000E+00  2.69568626E-03  0.00000000E+00
 -3.63331940E-03  1.11622855E-03  0.00000000E+00  4.88163969E-04  0.00000000E+00
 -8.97717612E-04 -3.12223581E-05  0.00000000E+00  0.00000000E+00 -4.28857733E-04
 -3.29962408E-02 -8.54201894E-02 -5.71030220E-02 -1.60379824E-02  0.00000000E+00
 -4.36607915E-03  1.00843327E-03  0.00000000E+00 -7.02351318E-03  5.36494559E-03
  0.00000000E+00  6.76171103E-03  3.21109055E-02  1.28605343E-03  0.00000000E+00
 -7.21351460E-04  1.42064135E-03  0.00000000E+00  2.69568626E-03  0.00000000E+00
  3.63331940E-03  1.11622855E-03  0.00000000E+00  4.88163969E-04  0.00000000E+00
  8.97717612E-04 -3.12223581E-05  0.00000000E+00  0.00000000E+00  4.28857733E-04
  0.00000000E+00  0.00000000E+00  0.00000000E+00  0.00000000E+00  0.00000000E+00
  1.85471015E-01  0.00000000E+00  0.00000000E+00  3.29778892E-01  0.00000000E+00
  0.00000000E+00  3.82341739E-01  0.00000000E+00  0.00000000E+00  3.06895106E-01
  0.00000000E+00  0.00000000E+00  0.00000000E+00 -2.27340294E-03  0.00000000E+00
  0.00000000E+00  0.00000000E+00  0.00000000E+00 -7.57279846E-03  0.00000000E+00
  0.00000000E+00  0.00000000E+00  0.00000000E+00 -1.76696530E-02  0.00000000E+00
  0.00000000E+00  0.00000000E+00  0.00000000E+00  3.35090515E-04  0.00000000E+00
  0.00000000E+00  0.00000000E+00 -9.23923761E-04  0.00000000E+00  0.00000000E+00
  1.65285994E-03  0.00000000E+00  0.00000000E+00  0.00000000E+00 -3.80216942E-03
  0.00000000E+00  0.00000000E+00 -2.23653823E-05  0.00000000E+00  0.00000000E+00
  0.00000000E+00  4.10859232E-04  0.00000000E+00  0.00000000E+00  0.00000000E+00
  0.00000000E+00  0.00000000E+00  0.00000000E+00  0.00000000E+00  5.08566730E-03
  0.00000000E+00  0.00000000E+00  1.15362437E-02  0.00000000E+00  0.00000000E+00
  3.12234026E-02  0.00000000E+00  0.00000000E+00  0.00000000E+00  1.42593789E-03
  0.00000000E+00  0.00000000E+00 -1.79312873E-03  0.00000000E+00  2.29883937E-03
  0.00000000E+00  0.00000000E+00 -3.71627683E-03  0.00000000E+00  3.79675158E-04
  0.00000000E+00  0.00000000E+00 -1.20846601E-03 -9.81317418E-04  0.00000000E+00
  0.00000000E+00  0.00000000E+00  0.00000000E+00  0.00000000E+00  5.08566730E-03
  0.00000000E+00  0.00000000E+00  1.15362437E-02  0.00000000E+00  0.00000000E+00
  3.12234026E-02  0.00000000E+00  0.00000000E+00  0.00000000E+00  1.42593789E-03
  0.00000000E+00  0.00000000E+00  1.79312873E-03  0.00000000E+00  2.29883937E-03
  0.00000000E+00  0.00000000E+00  3.71627683E-03  0.00000000E+00  3.79675158E-04
  0.00000000E+00  0.00000000E+00  1.20846601E-03 -9.81317418E-04  0.00000000E+00
 -4.05476558E-02  7.48543973E-02  1.18355448E-01  7.15283920E-02  1.42787247E+00
  0.00000000E+00  0.00000000E+00 -5.78846431E-02  0.00000000E+00  0.00000000E+00
 -8.23984368E-02  0.00000000E+00  0.00000000E+00 -2.08131875E-01  0.00000000E+00
  0.00000000E+00 -3.58638859E-01  6.07628477E-04  0.00000000E+00  0.00000000E+00
  6.11504039E-04  0.00000000E+00  2.34480402E-03  0.00000000E+00  0.00000000E+00
  4.10146784E-03  0.00000000E+00 -2.24886606E-04  0.00000000E+00  0.00000000E+00
 -5.53599236E-02  0.00000000E+00 -1.53111573E-03  0.00000000E+00  0.00000000E+00
 -2.29894267E-03  0.00000000E+00  0.00000000E+00  0.00000000E+00  9.92946727E-03
  0.00000000E+00  0.00000000E+00  1.71248466E-02  0.00000000E+00  0.00000000E+00
  0.00000000E+00 -1.22266800E-03  0.00000000E+00  0.00000000E+00 -1.49144460E-03
  0.00000000E+00  0.00000000E+00  0.00000000E+00  9.49910137E-04  0.00000000E+00
 -8.20059098E-03 -8.45525709E-02 -3.00980468E-01 -8.33819622E-01  0.00000000E+00
 -9.03505331E-04  4.64890693E-04  0.00000000E+00 -1.26275406E-02 -5.77763048E-04
  0.00000000E+00  8.32377424E-02 -6.91823163E-02 -1.76325608E-04  0.00000000E+00
 -8.16111001E-04 -9.62855534E-04  0.00000000E+00 -5.76119915E-03  0.00000000E+00
  2.04358549E-03 -1.58649857E-03  0.00000000E+00 -1.07179399E-03  0.00000000E+00
 -1.23475663E-03 -2.90451134E-03  0.00000000E+00  0.00000000E+00  1.50601925E-03
 -8.20059098E-03 -8.45525709E-02 -3.00980468E-01 -8.33819622E-01  0.00000000E+00
  9.03505331E-04  4.64890693E-04  0.00000000E+00  1.26275406E-02 -5.77763048E-04
  0.00000000E+00 -8.32377424E-02 -6.91823163E-02 -1.76325608E-04  0.00000000E+00
  8.16111001E-04 -9.62855534E-04  0.00000000E+00 -5.76119915E-03  0.00000000E+00
 -2.04358549E-03 -1.58649857E-03  0.00000000E+00 -1.07179399E-03  0.00000000E+00
  1.23475663E-03 -2.90451134E-03  0.00000000E+00  0.00000000E+00 -1.50601925E-03
  0.00000000E+00  0.00000000E+00  0.00000000E+00  0.00000000E+00  0.00000000E+00
  0.00000000E+00 -8.74081424E-02  0.00000000E+00  0.00000000E+00 -1.47598140E-01
  0.00000000E+00  0.00000000E+00 -2.66136841E-01  0.00000000E+00  0.00000000E+00
 -8.82236222E-01  0.00000000E+00  0.00000000E+00  0.00000000E+00  9.44554988E-04
  0.00000000E+00  0.00000000E+00  0.00000000E+00  0.00000000E+00 -8.21326309E-03
  0.00000000E+00  0.00000000E+00  0.00000000E+00  0.00000000E+00  9.61865734E-02
  0.00000000E+00  0.00000000E+00  0.00000000E+00  0.00000000E+00  1.38025171E-03
  0.00000000E+00  0.00000000E+00  0.00000000E+00 -3.59897914E-04  0.00000000E+00
  0.00000000E+00 -1.30565927E-02  0.00000000E+00  0.00000000E+00  0.00000000E+00
  3.62809682E-03  0.00000000E+00  0.00000000E+00  1.13692673E-03  0.00000000E+00
  0.00000000E+00  0.00000000E+00 -9.42883361E-04  0.00000000E+00  0.00000000E+00
  4.61773970E-03  6.83293871E-02  3.74192604E-01  1.76633491E+00  0.00000000E+00
  8.28583741E-04 -7.17023478E-04  0.00000000E+00  6.55959917E-03 -1.82189649E-02
  0.00000000E+00 -1.48574900E-01  1.13206296E-01 -1.38882658E-03  0.00000000E+00
  2.22471910E-03  1.19378321E-03  0.00000000E+00 -7.81238049E-03  0.00000000E+00
 -9.96407597E-03 -1.38884595E-02  0.00000000E+00 -8.58836483E-04  0.00000000E+00
  2.50910418E-03  8.29962574E-04  0.00000000E+00  0.00000000E+00  1.45228518E-05
 -4.61773970E-03 -6.83293871E-02 -3.74192604E-01 -1.76633491E+00  0.00000000E+00
  8.28583741E-04  7.17023478E-04  0.00000000E+00  6.55959917E-03  1.82189649E-02
  0.00000000E+00 -1.48574900E-01 -1.13206296E-01  1.38882658E-03  0.00000000E+00
  2.22471910E-03 -1.19378321E-03  0.00000000E+00  7.81238049E-03  0.00000000E+00
 -9.96407597E-03  1.38884595E-02  0.00000000E+00  8.58836483E-04  0.00000000E+00
  2.50910418E-03 -8.29962574E-04  0.00000000E+00  0.00000000E+00  1.45228518E-05
  0.00000000E+00  0.00000000E+00  0.00000000E+00  0.00000000E+00  0.00000000E+00
  0.00000000E+00 -5.80418911E-02  0.00000000E+00  0.00000000E+00 -7.74336430E-02
  0.00000000E+00  0.00000000E+00 -8.12536212E-01  0.00000000E+00  0.00000000E+00
 -1.59608459E+00  0.00000000E+00  0.00000000E+00  0.00000000E+00 -1.34726777E-02
  0.00000000E+00  0.00000000E+00  0.00000000E+00  0.00000000E+00  3.86924336E-02
  0.00000000E+00  0.00000000E+00  0.00000000E+00  0.00000000E+00  4.10804270E-01
  0.00000000E+00  0.00000000E+00  0.00000000E+00  0.00000000E+00  2.63140668E-03
  0.00000000E+00  0.00000000E+00  0.00000000E+00 -4.30448076E-04  0.00000000E+00
  0.00000000E+00 -5.87680936E-02  0.00000000E+00  0.00000000E+00  0.00000000E+00
  3.89713471E-02  0.00000000E+00  0.00000000E+00 -1.55028503E-04  0.00000000E+00
  0.00000000E+00  0.00000000E+00 -6.78878537E-03  0.00000000E+00  0.00000000E+00
  4.07004606E-02  2.75803056E-01  2.37739705E+00 -7.82209290E-01  0.00000000E+00
  1.97504501E-02 -2.11508241E-02  0.00000000E+00 -2.23417138E-01  1.55351130E-01
  0.00000000E+00 -2.23196492E-01  8.53335170E-02  5.58040110E-05  0.00000000E+00
 -9.65136721E-03 -8.61744035E-03  0.00000000E+00 -1.29164692E-02  0.00000000E+00
 -8.02667471E-02 -4.80779197E-02  0.00000000E+00 -5.48403111E-03  0.00000000E+00
 -1.58126806E-03 -7.60661571E-03  0.00000000E+00  0.00000000E+00  3.97402697E-03
 -4.07004606E-02 -2.75803056E-01 -2.37739705E+00  7.82209290E-01  0.00000000E+00
  1.97504501E-02  2.11508241E-02  0.00000000E+00 -2.23417138E-01 -1.55351130E-01
  0.00000000E+00 -2.23196492E-01 -8.53335170E-02 -5.58040110E-05  0.00000000E+00
 -9.65136721E-03  8.61744035E-03  0.00000000E+00  1.29164692E-02  0.00000000E+00