bz                                                                      
FOpt      UB3LYP                                                      Aug-CC-pVDZ         
Number of atoms                            I               12
Info1-9                                    I   N=           9
          23          21           0           0           0         110
           2          18        -502
Full Title                                 C   N=           1
bz          
Route                                      C   N=           5
#p UB3LYP/aug-cc-pVDZ out=wfx opt gfinput pop=full          
Charge                                     I                0
Multiplicity                               I                1
Number of electrons                        I               42
Number of alpha electrons                  I               21
Number of beta electrons                   I               21
Number of basis functions                  I              192
Number of independent functions            I              192
Number of point charges in /Mol/           I                0
Number of translation vectors              I                0
Atomic numbers                             I   N=          12
           6           6           6           6           6           6
           1           1           1           1           1           1
Nuclear charges                            R   N=          12
  6.00000000E+00  6.00000000E+00  6.00000000E+00  6.00000000E+00  6.00000000E+00
  6.00000000E+00  1.00000000E+00  1.00000000E+00  1.00000000E+00  1.00000000E+00
  1.00000000E+00  1.00000000E+00
Current cartesian coordinates              R   N=          36
 -4.17599042E-17 -2.77318159E-16  2.64405557E+00  3.38616156E-16  2.28982227E+00
  1.32202788E+00  5.00517877E-16  2.28982227E+00 -1.32202788E+00  2.82043514E-16
  2.77318159E-16 -2.64405557E+00 -7.02558316E-16 -2.28982227E+00 -1.32202788E+00
 -7.02558316E-16 -2.28982227E+00  1.32202788E+00 -4.17599042E-17 -4.93519781E-16
  4.70540309E+00  6.35162589E-16  4.07499936E+00  2.35270733E+00  9.23286139E-16
  4.07499936E+00 -2.35270733E+00  5.34485779E-16  4.93519781E-16 -4.70540309E+00
 -1.21772589E-15 -4.07499936E+00 -2.35270733E+00 -1.21772589E-15 -4.07499936E+00
  2.35270733E+00
Number of symbols in /Mol/                 I                0
Force Field                                I                0
Atom Types                                 C   N=          12
                                                            
                                                            
                        
Int Atom Types                             I   N=          12
           0           0           0           0           0           0
           0           0           0           0           0           0
MM charges                                 R   N=          12
  0.00000000E+00  0.00000000E+00  0.00000000E+00  0.00000000E+00  0.00000000E+00
  0.00000000E+00  0.00000000E+00  0.00000000E+00  0.00000000E+00  0.00000000E+00
  0.00000000E+00  0.00000000E+00
Integer atomic weights                     I   N=          12
          12          12          12          12          12          12
           1           1           1           1           1           1
Real atomic weights                        R   N=          12
  1.20000000E+01  1.20000000E+01  1.20000000E+01  1.20000000E+01  1.20000000E+01
  1.20000000E+01  1.00782504E+00  1.00782504E+00  1.00782504E+00  1.00782504E+00
  1.00782504E+00  1.00782504E+00
Atom fragment info                         I   N=          12
           0           0           0           0           0           0
           0           0           0           0           0           0
Atom residue num                           I   N=          12
           0           0           0           0           0           0
           0           0           0           0           0           0
Nuclear spins                              I   N=          12
           0           0           0           0           0           0
           1           1           1           1           1           1
Nuclear ZEff                               R   N=          12
 -3.60000000E+00 -3.60000000E+00 -3.60000000E+00 -3.60000000E+00 -3.60000000E+00
 -3.60000000E+00 -1.00000000E+00 -1.00000000E+00 -1.00000000E+00 -1.00000000E+00
 -1.00000000E+00 -1.00000000E+00
Nuclear ZNuc                               R   N=          12
  6.00000000E+00  6.00000000E+00  6.00000000E+00  6.00000000E+00  6.00000000E+00
  6.00000000E+00  1.00000000E+00  1.00000000E+00  1.00000000E+00  1.00000000E+00
  1.00000000E+00  1.00000000E+00
Nuclear QMom                               R   N=          12
  0.00000000E+00  0.00000000E+00  0.00000000E+00  0.00000000E+00  0.00000000E+00
  0.00000000E+00  0.00000000E+00  0.00000000E+00  0.00000000E+00  0.00000000E+00
  0.00000000E+00  0.00000000E+00
Nuclear GFac                               R   N=          12
  0.00000000E+00  0.00000000E+00  0.00000000E+00  0.00000000E+00  0.00000000E+00
  0.00000000E+00  2.79284600E+00  2.79284600E+00  2.79284600E+00  2.79284600E+00
  2.79284600E+00  2.79284600E+00
MicOpt                                     I   N=          12
          -1          -1          -1          -1          -1          -1
          -1          -1          -1          -1          -1          -1
Number of residues                         I                0
Number of secondary structures             I                0
Redundant internal dimensions              I   N=           4
          54          12          18          24
Redundant internal coordinate indices      I   N=         216
           1           2           0           0           1           6
           0           0           1           7           0           0
           2           3           0           0           2           8
           0           0           3           4           0           0
           3           9           0           0           4           5
           0           0           4          10           0           0
           5           6           0           0           5          11
           0           0           6          12           0           0
           2           1           6           0           2           1
           7           0           6           1           7           0
           1           2           3           0           1           2
           8           0           3           2           8           0
           2           3           4           0           2           3
           9           0           4           3           9           0
           3           4           5           0           3           4
          10           0           5           4          10           0
           4           5           6           0           4           5
          11           0           6           5          11           0
           1           6           5           0           1           6
          12           0           5           6          12           0
           6           1           2           3           6           1
           2           8           7           1           2           3
           7           1           2           8           2           1
           6           5           2           1           6          12
           7           1           6           5           7           1
           6          12           1           2           3           4
           1           2           3           9           8           2
           3           4           8           2           3           9
           2           3           4           5           2           3
           4          10           9           3           4           5
           9           3           4          10           3           4
           5           6           3           4           5          11
          10           4           5           6          10           4
           5          11           4           5           6           1
           4           5           6          12          11           5
           6           1          11           5           6          12
Redundant internal coordinates             R   N=          54
  2.64405810E+00  2.64405810E+00  2.06134753E+00  2.64405576E+00  2.06134844E+00
  2.64405810E+00  2.06134844E+00  2.64405810E+00  2.06134753E+00  2.64405576E+00
  2.06134844E+00  2.06134844E+00  2.09439630E+00  2.09439451E+00  2.09439451E+00
  2.09439451E+00  2.09439277E+00  2.09439803E+00  2.09439451E+00  2.09439803E+00
  2.09439277E+00  2.09439630E+00  2.09439451E+00  2.09439451E+00  2.09439451E+00
  2.09439277E+00  2.09439803E+00  2.09439451E+00  2.09439277E+00  2.09439803E+00
 -0.00000000E+00  3.14159265E+00  3.14159265E+00  0.00000000E+00  0.00000000E+00
  3.14159265E+00  3.14159265E+00 -0.00000000E+00 -0.00000000E+00  3.14159265E+00
  3.14159265E+00  0.00000000E+00  0.00000000E+00  3.14159265E+00  3.14159265E+00
 -0.00000000E+00 -0.00000000E+00  3.14159265E+00  3.14159265E+00 -0.00000000E+00
  0.00000000E+00  3.14159265E+00  3.14159265E+00 -0.00000000E+00
ZRed-IntVec                                I   N=          54
           0           0           0           0           0           0
           0           0           0           0           0           0
           0           0           0           0           0           0
           0           0           0           0           0           0
           0           0           0           0           0           0
           0           0           0           0           0           0
           0           0           0           0           0           0
           0           0           0           0           0           0
           0           0           0           0           0           0
ZRed-FPVec                                 R   N=          54
  0.00000000E+00  0.00000000E+00  0.00000000E+00  0.00000000E+00  0.00000000E+00
  0.00000000E+00  0.00000000E+00  0.00000000E+00  0.00000000E+00  0.00000000E+00
  0.00000000E+00  0.00000000E+00  0.00000000E+00  0.00000000E+00  0.00000000E+00
  0.00000000E+00  0.00000000E+00  0.00000000E+00  0.00000000E+00  0.00000000E+00
  0.00000000E+00  0.00000000E+00  0.00000000E+00  0.00000000E+00  0.00000000E+00
  0.00000000E+00  0.00000000E+00  0.00000000E+00  0.00000000E+00  0.00000000E+00
  0.00000000E+00  0.00000000E+00  0.00000000E+00  0.00000000E+00  0.00000000E+00
  0.00000000E+00  0.00000000E+00  0.00000000E+00  0.00000000E+00  0.00000000E+00
  0.00000000E+00  0.00000000E+00  0.00000000E+00  0.00000000E+00  0.00000000E+00
  0.00000000E+00  0.00000000E+00  0.00000000E+00  0.00000000E+00  0.00000000E+00
  0.00000000E+00  0.00000000E+00  0.00000000E+00  0.00000000E+00
ZRed-Constraint1                           R   N=          54
  2.63257068E+00  2.63257068E+00  2.05986006E+00  2.63256991E+00  2.05986274E+00
  2.63257068E+00  2.05986274E+00  2.63257068E+00  2.05986006E+00  2.63256991E+00
  2.05986274E+00  2.05986274E+00  2.09439544E+00  2.09439493E+00  2.09439493E+00
  2.09439493E+00  2.09439020E+00  2.09440018E+00  2.09439493E+00  2.09440018E+00
  2.09439020E+00  2.09439544E+00  2.09439493E+00  2.09439493E+00  2.09439493E+00
  2.09439020E+00  2.09440018E+00  2.09439493E+00  2.09439020E+00  2.09440018E+00
  0.00000000E+00  3.14159265E+00  3.14159265E+00  0.00000000E+00  0.00000000E+00
  3.14159265E+00  3.14159265E+00  0.00000000E+00  0.00000000E+00  3.14159265E+00
  3.14159265E+00  0.00000000E+00  0.00000000E+00  3.14159265E+00  3.14159265E+00
  0.00000000E+00  0.00000000E+00  3.14159265E+00  3.14159265E+00  0.00000000E+00
  0.00000000E+00  3.14159265E+00  3.14159265E+00  0.00000000E+00
ZRed-Constraint2                           R   N=          54
  0.00000000E+00  0.00000000E+00  0.00000000E+00  0.00000000E+00  0.00000000E+00
  0.00000000E+00  0.00000000E+00  0.00000000E+00  0.00000000E+00  0.00000000E+00
  0.00000000E+00  0.00000000E+00  0.00000000E+00  0.00000000E+00  0.00000000E+00
  0.00000000E+00  0.00000000E+00  0.00000000E+00  0.00000000E+00  0.00000000E+00
  0.00000000E+00  0.00000000E+00  0.00000000E+00  0.00000000E+00  0.00000000E+00
  0.00000000E+00  0.00000000E+00  0.00000000E+00  0.00000000E+00  0.00000000E+00
  0.00000000E+00  0.00000000E+00  0.00000000E+00  0.00000000E+00  0.00000000E+00
  0.00000000E+00  0.00000000E+00  0.00000000E+00  0.00000000E+00  0.00000000E+00
  0.00000000E+00  0.00000000E+00  0.00000000E+00  0.00000000E+00  0.00000000E+00
  0.00000000E+00  0.00000000E+00  0.00000000E+00  0.00000000E+00  0.00000000E+00
  0.00000000E+00  0.00000000E+00  0.00000000E+00  0.00000000E+00
SymInf integers                            I   N=          26
           4           8           1           1           1          -1
          -1           1          -1           1          -1           1
          -1          -1          -1           1           1           1
          -1           1           1           1          -1          -1
          -1          -1
RotTr to input orientation                 R   N=          12
  1.00000000E+00 -1.66115975E-16  2.67287095E-33  1.66115975E-16  1.00000000E+00
  1.04883635E-16 -2.00957183E-32 -1.04883635E-16  1.00000000E+00 -4.17599042E-17
  0.00000000E+00 -3.17206578E-17
Number of contracted shells                I               84
Number of primitive shells                 I              180
Pure/Cartesian d shells                    I                0
Pure/Cartesian f shells                    I                0
Highest angular momentum                   I                2
Largest degree of contraction              I                7
Shell types                                I   N=          84
           0           0           0           0           1           1
           1          -2          -2           0           0           0
           0           1           1           1          -2          -2
           0           0           0           0           1           1
           1          -2          -2           0           0           0
           0           1           1           1          -2          -2
           0           0           0           0           1           1
           1          -2          -2           0           0           0
           0           1           1           1          -2          -2
           0           0           0           1           1           0
           0           0           1           1           0           0
           0           1           1           0           0           0
           1           1           0           0           0           1
           1           0           0           0           1           1
Number of primitives per shell             I   N=          84
           7           7           1           1           3           1
           1           1           1           7           7           1
           1           3           1           1           1           1
           7           7           1           1           3           1
           1           1           1           7           7           1
           1           3           1           1           1           1
           7           7           1           1           3           1
           1           1           1           7           7           1
           1           3           1           1           1           1
           3           1           1           1           1           3
           1           1           1           1           3           1
           1           1           1           3           1           1
           1           1           3           1           1           1
           1           3           1           1           1           1
Shell to atom map                          I   N=          84
           1           1           1           1           1           1
           1           1           1           2           2           2
           2           2           2           2           2           2
           3           3           3           3           3           3
           3           3           3           4           4           4
           4           4           4           4           4           4
           5           5           5           5           5           5
           5           5           5           6           6           6
           6           6           6           6           6           6
           7           7           7           7           7           8
           8           8           8           8           9           9
           9           9           9          10          10          10
          10          10          11          11          11          11
          11          12          12          12          12          12
Primitive exponents                        R   N=         180
  6.66500000E+03  1.00000000E+03  2.28000000E+02  6.47100000E+01  2.10600000E+01
  7.49500000E+00  2.79700000E+00  6.66500000E+03  2.28000000E+02  6.47100000E+01
  2.10600000E+01  7.49500000E+00  2.79700000E+00  5.21500000E-01  1.59600000E-01
  4.69000000E-02  9.43900000E+00  2.00200000E+00  5.45600000E-01  1.51700000E-01
  4.04100000E-02  5.50000000E-01  1.51000000E-01  6.66500000E+03  1.00000000E+03
  2.28000000E+02  6.47100000E+01  2.10600000E+01  7.49500000E+00  2.79700000E+00
  6.66500000E+03  2.28000000E+02  6.47100000E+01  2.10600000E+01  7.49500000E+00
  2.79700000E+00  5.21500000E-01  1.59600000E-01  4.69000000E-02  9.43900000E+00
  2.00200000E+00  5.45600000E-01  1.51700000E-01  4.04100000E-02  5.50000000E-01
  1.51000000E-01  6.66500000E+03  1.00000000E+03  2.28000000E+02  6.47100000E+01
  2.10600000E+01  7.49500000E+00  2.79700000E+00  6.66500000E+03  2.28000000E+02
  6.47100000E+01  2.10600000E+01  7.49500000E+00  2.79700000E+00  5.21500000E-01
  1.59600000E-01  4.69000000E-02  9.43900000E+00  2.00200000E+00  5.45600000E-01
  1.51700000E-01  4.04100000E-02  5.50000000E-01  1.51000000E-01  6.66500000E+03
  1.00000000E+03  2.28000000E+02  6.47100000E+01  2.10600000E+01  7.49500000E+00
  2.79700000E+00  6.66500000E+03  2.28000000E+02  6.47100000E+01  2.10600000E+01
  7.49500000E+00  2.79700000E+00  5.21500000E-01  1.59600000E-01  4.69000000E-02
  9.43900000E+00  2.00200000E+00  5.45600000E-01  1.51700000E-01  4.04100000E-02
  5.50000000E-01  1.51000000E-01  6.66500000E+03  1.00000000E+03  2.28000000E+02
  6.47100000E+01  2.10600000E+01  7.49500000E+00  2.79700000E+00  6.66500000E+03
  2.28000000E+02  6.47100000E+01  2.10600000E+01  7.49500000E+00  2.79700000E+00
  5.21500000E-01  1.59600000E-01  4.69000000E-02  9.43900000E+00  2.00200000E+00
  5.45600000E-01  1.51700000E-01  4.04100000E-02  5.50000000E-01  1.51000000E-01
  6.66500000E+03  1.00000000E+03  2.28000000E+02  6.47100000E+01  2.10600000E+01
  7.49500000E+00  2.79700000E+00  6.66500000E+03  2.28000000E+02  6.47100000E+01
  2.10600000E+01  7.49500000E+00  2.79700000E+00  5.21500000E-01  1.59600000E-01
  4.69000000E-02  9.43900000E+00  2.00200000E+00  5.45600000E-01  1.51700000E-01
  4.04100000E-02  5.50000000E-01  1.51000000E-01  1.30100000E+01  1.96200000E+00
  4.44600000E-01  1.22000000E-01  2.97400000E-02  7.27000000E-01  1.41000000E-01
  1.30100000E+01  1.96200000E+00  4.44600000E-01  1.22000000E-01  2.97400000E-02
  7.27000000E-01  1.41000000E-01  1.30100000E+01  1.96200000E+00  4.44600000E-01
  1.22000000E-01  2.97400000E-02  7.27000000E-01  1.41000000E-01  1.30100000E+01
  1.96200000E+00  4.44600000E-01  1.22000000E-01  2.97400000E-02  7.27000000E-01
  1.41000000E-01  1.30100000E+01  1.96200000E+00  4.44600000E-01  1.22000000E-01
  2.97400000E-02  7.27000000E-01  1.41000000E-01  1.30100000E+01  1.96200000E+00
  4.44600000E-01  1.22000000E-01  2.97400000E-02  7.27000000E-01  1.41000000E-01
Contraction coefficients                   R   N=         180
  6.93516317E-04  5.34150243E-03  2.71366714E-02  1.01992385E-01  2.75508636E-01
  4.51086433E-01  2.87565745E-01  7.73354740E-06  2.78072137E-04 -2.57875654E-03
 -8.95087684E-03 -1.06058855E-01 -1.31517686E-01  1.09948660E+00  1.00000000E+00
  1.00000000E+00  5.69792516E-02  3.13207212E-01  7.60376742E-01  1.00000000E+00
  1.00000000E+00  1.00000000E+00  1.00000000E+00  6.93516317E-04  5.34150243E-03
  2.71366714E-02  1.01992385E-01  2.75508636E-01  4.51086433E-01  2.87565745E-01
  7.73354740E-06  2.78072137E-04 -2.57875654E-03 -8.95087684E-03 -1.06058855E-01
 -1.31517686E-01  1.09948660E+00  1.00000000E+00  1.00000000E+00  5.69792516E-02
  3.13207212E-01  7.60376742E-01  1.00000000E+00  1.00000000E+00  1.00000000E+00
  1.00000000E+00  6.93516317E-04  5.34150243E-03  2.71366714E-02  1.01992385E-01
  2.75508636E-01  4.51086433E-01  2.87565745E-01  7.73354740E-06  2.78072137E-04
 -2.57875654E-03 -8.95087684E-03 -1.06058855E-01 -1.31517686E-01  1.09948660E+00
  1.00000000E+00  1.00000000E+00  5.69792516E-02  3.13207212E-01  7.60376742E-01
  1.00000000E+00  1.00000000E+00  1.00000000E+00  1.00000000E+00  6.93516317E-04
  5.34150243E-03  2.71366714E-02  1.01992385E-01  2.75508636E-01  4.51086433E-01
  2.87565745E-01  7.73354740E-06  2.78072137E-04 -2.57875654E-03 -8.95087684E-03
 -1.06058855E-01 -1.31517686E-01  1.09948660E+00  1.00000000E+00  1.00000000E+00
  5.69792516E-02  3.13207212E-01  7.60376742E-01  1.00000000E+00  1.00000000E+00
  1.00000000E+00  1.00000000E+00  6.93516317E-04  5.34150243E-03  2.71366714E-02
  1.01992385E-01  2.75508636E-01  4.51086433E-01  2.87565745E-01  7.73354740E-06
  2.78072137E-04 -2.57875654E-03 -8.95087684E-03 -1.06058855E-01 -1.31517686E-01
  1.09948660E+00  1.00000000E+00  1.00000000E+00  5.69792516E-02  3.13207212E-01
  7.60376742E-01  1.00000000E+00  1.00000000E+00  1.00000000E+00  1.00000000E+00
  6.93516317E-04  5.34150243E-03  2.71366714E-02  1.01992385E-01  2.75508636E-01
  4.51086433E-01  2.87565745E-01  7.73354740E-06  2.78072137E-04 -2.57875654E-03
 -8.95087684E-03 -1.06058855E-01 -1.31517686E-01  1.09948660E+00  1.00000000E+00
  1.00000000E+00  5.69792516E-02  3.13207212E-01  7.60376742E-01  1.00000000E+00
  1.00000000E+00  1.00000000E+00  1.00000000E+00  3.34987264E-02  2.34800801E-01
  8.13682958E-01  1.00000000E+00  1.00000000E+00  1.00000000E+00  1.00000000E+00
  3.34987264E-02  2.34800801E-01  8.13682958E-01  1.00000000E+00  1.00000000E+00
  1.00000000E+00  1.00000000E+00  3.34987264E-02  2.34800801E-01  8.13682958E-01
  1.00000000E+00  1.00000000E+00  1.00000000E+00  1.00000000E+00  3.34987264E-02
  2.34800801E-01  8.13682958E-01  1.00000000E+00  1.00000000E+00  1.00000000E+00
  1.00000000E+00  3.34987264E-02  2.34800801E-01  8.13682958E-01  1.00000000E+00
  1.00000000E+00  1.00000000E+00  1.00000000E+00  3.34987264E-02  2.34800801E-01
  8.13682958E-01  1.00000000E+00  1.00000000E+00  1.00000000E+00  1.00000000E+00
Coordinates of each shell                  R   N=         252
  4.64760226E-34  5.33049041E-33  2.64405557E+00  4.64760226E-34  5.33049041E-33
  2.64405557E+00  4.64760226E-34  5.33049041E-33  2.64405557E+00  4.64760226E-34
  5.33049041E-33  2.64405557E+00  4.64760226E-34  5.33049041E-33  2.64405557E+00
  4.64760226E-34  5.33049041E-33  2.64405557E+00  4.64760226E-34  5.33049041E-33
  2.64405557E+00  4.64760226E-34  5.33049041E-33  2.64405557E+00  4.64760226E-34
  5.33049041E-33  2.64405557E+00  8.95822613E-33  2.28982227E+00  1.32202788E+00
  8.95822613E-33  2.28982227E+00  1.32202788E+00  8.95822613E-33  2.28982227E+00
  1.32202788E+00  8.95822613E-33  2.28982227E+00  1.32202788E+00  8.95822613E-33
  2.28982227E+00  1.32202788E+00  8.95822613E-33  2.28982227E+00  1.32202788E+00
  8.95822613E-33  2.28982227E+00  1.32202788E+00  8.95822613E-33  2.28982227E+00
  1.32202788E+00  8.95822613E-33  2.28982227E+00  1.32202788E+00  1.61901721E-16
  2.28982227E+00 -1.32202788E+00  1.61901721E-16  2.28982227E+00 -1.32202788E+00
  1.61901721E-16  2.28982227E+00 -1.32202788E+00  1.61901721E-16  2.28982227E+00
 -1.32202788E+00  1.61901721E-16  2.28982227E+00 -1.32202788E+00  1.61901721E-16
  2.28982227E+00 -1.32202788E+00  1.61901721E-16  2.28982227E+00 -1.32202788E+00
  1.61901721E-16  2.28982227E+00 -1.32202788E+00  1.61901721E-16  2.28982227E+00
 -1.32202788E+00  3.23803419E-16 -5.33049041E-33 -2.64405557E+00  3.23803419E-16
 -5.33049041E-33 -2.64405557E+00  3.23803419E-16 -5.33049041E-33 -2.64405557E+00
  3.23803419E-16 -5.33049041E-33 -2.64405557E+00  3.23803419E-16 -5.33049041E-33
 -2.64405557E+00  3.23803419E-16 -5.33049041E-33 -2.64405557E+00  3.23803419E-16
 -5.33049041E-33 -2.64405557E+00  3.23803419E-16 -5.33049041E-33 -2.64405557E+00
  3.23803419E-16 -5.33049041E-33 -2.64405557E+00 -2.80422352E-16 -2.28982227E+00
 -1.32202788E+00 -2.80422352E-16 -2.28982227E+00 -1.32202788E+00 -2.80422352E-16
 -2.28982227E+00 -1.32202788E+00 -2.80422352E-16 -2.28982227E+00 -1.32202788E+00
 -2.80422352E-16 -2.28982227E+00 -1.32202788E+00 -2.80422352E-16 -2.28982227E+00
 -1.32202788E+00 -2.80422352E-16 -2.28982227E+00 -1.32202788E+00 -2.80422352E-16
 -2.28982227E+00 -1.32202788E+00 -2.80422352E-16 -2.28982227E+00 -1.32202788E+00
 -2.80422352E-16 -2.28982227E+00  1.32202788E+00 -2.80422352E-16 -2.28982227E+00
  1.32202788E+00 -2.80422352E-16 -2.28982227E+00  1.32202788E+00 -2.80422352E-16
 -2.28982227E+00  1.32202788E+00 -2.80422352E-16 -2.28982227E+00  1.32202788E+00
 -2.80422352E-16 -2.28982227E+00  1.32202788E+00 -2.80422352E-16 -2.28982227E+00
  1.32202788E+00 -2.80422352E-16 -2.28982227E+00  1.32202788E+00 -2.80422352E-16
 -2.28982227E+00  1.32202788E+00 -2.51748650E-33 -2.19627095E-32  4.70540309E+00
 -2.51748650E-33 -2.19627095E-32  4.70540309E+00 -2.51748650E-33 -2.19627095E-32
  4.70540309E+00 -2.51748650E-33 -2.19627095E-32  4.70540309E+00 -2.51748650E-33
 -2.19627095E-32  4.70540309E+00  5.13642041E-32  4.07499936E+00  2.35270733E+00
  5.13642041E-32  4.07499936E+00  2.35270733E+00  5.13642041E-32  4.07499936E+00
  2.35270733E+00  5.13642041E-32  4.07499936E+00  2.35270733E+00  5.13642041E-32
  4.07499936E+00  2.35270733E+00  2.88123551E-16  4.07499936E+00 -2.35270733E+00
  2.88123551E-16  4.07499936E+00 -2.35270733E+00  2.88123551E-16  4.07499936E+00
 -2.35270733E+00  2.88123551E-16  4.07499936E+00 -2.35270733E+00  2.88123551E-16
  4.07499936E+00 -2.35270733E+00  5.76245684E-16  2.19627095E-32 -4.70540309E+00
  5.76245684E-16  2.19627095E-32 -4.70540309E+00  5.76245684E-16  2.19627095E-32
 -4.70540309E+00  5.76245684E-16  2.19627095E-32 -4.70540309E+00  5.76245684E-16
  2.19627095E-32 -4.70540309E+00 -4.99043493E-16 -4.07499936E+00 -2.35270733E+00
 -4.99043493E-16 -4.07499936E+00 -2.35270733E+00 -4.99043493E-16 -4.07499936E+00
 -2.35270733E+00 -4.99043493E-16 -4.07499936E+00 -2.35270733E+00 -4.99043493E-16
 -4.07499936E+00 -2.35270733E+00 -4.99043493E-16 -4.07499936E+00  2.35270733E+00
 -4.99043493E-16 -4.07499936E+00  2.35270733E+00 -4.99043493E-16 -4.07499936E+00
  2.35270733E+00 -4.99043493E-16 -4.07499936E+00  2.35270733E+00 -4.99043493E-16
 -4.07499936E+00  2.35270733E+00
Num ILSW                                   I              100
ILSW                                       I   N=         100
           1           0           0           1           2           0
           0           0           0           0         402          -1
           5           0           0           0           2           0
           0           0           0           0           1           0
           1           0           0           0           0           0
           0           0      100000           0          -1           0
           0           0           0           0           0           0
           0           0           0           1           0           0
           0 -2000000000           1           0           0           0
           0           0           4          52           0           0
           0           0           5           0           0           0
           0           0           0          12           0           1
           0           0           0           0           0           0
           0           0           0           0           0           0
           0           0           0           0           0           0
           0           0           0           0           0           0
           0           0           0           0
Num RLSW                                   I               52
RLSW                                       R   N=          52
  8.00000000E-01  7.20000000E-01  1.00000000E+00  8.10000000E-01  2.00000000E-01
  0.00000000E+00  0.00000000E+00  1.00000000E+00  0.00000000E+00  0.00000000E+00
  0.00000000E+00  0.00000000E+00  1.00000000E+00  0.00000000E+00  0.00000000E+00
  0.00000000E+00  0.00000000E+00  1.00000000E+00  0.00000000E+00  0.00000000E+00
  0.00000000E+00  0.00000000E+00  1.00000000E+00  0.00000000E+00  0.00000000E+00
  0.00000000E+00  0.00000000E+00  1.00000000E+00  0.00000000E+00  0.00000000E+00
  0.00000000E+00  0.00000000E+00  1.00000000E+00  0.00000000E+00  0.00000000E+00
  0.00000000E+00  0.00000000E+00  0.00000000E+00  1.00000000E+00  1.00000000E+00
  0.00000000E+00  1.00000000E+00  0.00000000E+00  0.00000000E+00  0.00000000E+00
  0.00000000E+00  0.00000000E+00  0.00000000E+00  0.00000000E+00  0.00000000E+00
  0.00000000E+00  0.00000000E+00
MxBond                                     I                3
NBond                                      I   N=          12
           3           3           3           3           3           3
           1           1           1           1           1           1
IBond                                      I   N=          36
           2           6           7           1           3           8
           2           4           9           3           5          10
           4           6          11           1           5          12