Water cc-pVDZ (Independent s/p, Cartesian 6D)                           
SP        RHF                                                         CC-pVDZ             
Number of atoms                            I                3
Info1-9                                    I   N=           9
          13          13           0           0           0         110
           1           1           2
Full Title                                 C   N=           4
Water cc-pVDZ (Independent s/p, Cartesian 6D)   
Route                                      C   N=           3
#p HF/cc-pVDZ 6D pop=full gfprint   
Charge                                     I                0
Multiplicity                               I                1
Number of electrons                        I               10
Number of alpha electrons                  I                5
Number of beta electrons                   I                5
Number of basis functions                  I               25
Number of independent functions            I               25
Number of point charges in /Mol/           I                0
Number of translation vectors              I                0
Atomic numbers                             I   N=           3
           8           1           1
Nuclear charges                            R   N=           3
  8.00000000E+00  1.00000000E+00  1.00000000E+00
Current cartesian coordinates              R   N=           9
  1.35730589E-17  1.35730589E-17  2.21664874E-01  2.08559944E-16  1.43090062E+00
 -8.86659498E-01 -4.92379202E-16 -1.43090062E+00 -8.86659498E-01
Number of symbols in /Mol/                 I                0
Force Field                                I                0
Atom Types                                 C   N=           3
                                    
Int Atom Types                             I   N=           3
           0           0           0
MM charges                                 R   N=           3
  0.00000000E+00  0.00000000E+00  0.00000000E+00
Integer atomic weights                     I   N=           3
          16           1           1
Real atomic weights                        R   N=           3
  1.59949146E+01  1.00782504E+00  1.00782504E+00
Atom fragment info                         I   N=           3
           0           0           0
Atom residue num                           I   N=           3
           0           0           0
Nuclear spins                              I   N=           3
           0           1           1
Nuclear ZEff                               R   N=           3
 -5.60000000E+00 -1.00000000E+00 -1.00000000E+00
Nuclear ZNuc                               R   N=           3
  8.00000000E+00  1.00000000E+00  1.00000000E+00
Nuclear QMom                               R   N=           3
  0.00000000E+00  0.00000000E+00  0.00000000E+00
Nuclear GFac                               R   N=           3
  0.00000000E+00  2.79284600E+00  2.79284600E+00
MicOpt                                     I   N=           3
          -1          -1          -1
Number of residues                         I                0
Number of secondary structures             I                0
SymInf integers                            I   N=          26
           2           4           1           1           1          -1
          -1           1          -1           1           1           1
          -1           1           0           0           0           0
           0           0           0           0           0           0
           0           0
RotTr to input orientation                 R   N=          12
  1.00000000E+00 -1.83697020E-16 -6.12323400E-17  1.83697020E-16  1.00000000E+00
 -6.12323400E-17  6.12323400E-17  6.12323400E-17  1.00000000E+00  0.00000000E+00
  0.00000000E+00  0.00000000E+00
Number of contracted shells                I               12
Number of primitive shells                 I               30
Pure/Cartesian d shells                    I                1
Pure/Cartesian f shells                    I                0
Highest angular momentum                   I                2
Largest degree of contraction              I                7
Shell types                                I   N=          12
           0           0           0           1           1           2
           0           0           1           0           0           1
Number of primitives per shell             I   N=          12
           7           7           1           3           1           1
           3           1           1           3           1           1
Shell to atom map                          I   N=          12
           1           1           1           1           1           1
           2           2           2           3           3           3
Primitive exponents                        R   N=          30
  1.17200000E+04  1.75900000E+03  4.00800000E+02  1.13700000E+02  3.70300000E+01
  1.32700000E+01  5.02500000E+00  1.17200000E+04  4.00800000E+02  1.13700000E+02
  3.70300000E+01  1.32700000E+01  5.02500000E+00  1.01300000E+00  3.02300000E-01
  1.77000000E+01  3.85400000E+00  1.04600000E+00  2.75300000E-01  1.18500000E+00
  1.30100000E+01  1.96200000E+00  4.44600000E-01  1.22000000E-01  7.27000000E-01
  1.30100000E+01  1.96200000E+00  4.44600000E-01  1.22000000E-01  7.27000000E-01
Contraction coefficients                   R   N=          30
  7.11864434E-04  5.48520199E-03  2.79099296E-02  1.05133208E-01  2.84002490E-01
  4.51673946E-01  2.73208126E-01  7.69030046E-06  3.13484579E-04 -2.96614853E-03
 -1.08753543E-02 -1.20753817E-01 -1.06275264E-01  1.09597548E+00  1.00000000E+00
  6.26791663E-02  3.33536566E-01  7.41239642E-01  1.00000000E+00  1.00000000E+00
  3.34987264E-02  2.34800801E-01  8.13682958E-01  1.00000000E+00  1.00000000E+00
  3.34987264E-02  2.34800801E-01  8.13682958E-01  1.00000000E+00  1.00000000E+00
Coordinates of each shell                  R   N=          36
  6.83057631E-34 -1.36611526E-33  2.21664874E-01  6.83057631E-34 -1.36611526E-33
  2.21664874E-01  6.83057631E-34 -1.36611526E-33  2.21664874E-01  6.83057631E-34
 -1.36611526E-33  2.21664874E-01  6.83057631E-34 -1.36611526E-33  2.21664874E-01
  6.83057631E-34 -1.36611526E-33  2.21664874E-01  0.00000000E+00  1.43090062E+00
 -8.86659498E-01  0.00000000E+00  1.43090062E+00 -8.86659498E-01  0.00000000E+00
  1.43090062E+00 -8.86659498E-01 -1.75234787E-16 -1.43090062E+00 -8.86659498E-01
 -1.75234787E-16 -1.43090062E+00 -8.86659498E-01 -1.75234787E-16 -1.43090062E+00
 -8.86659498E-01
Num ILSW                                   I              100
ILSW                                       I   N=         100
           0           1           0           0           2           0
           0           0           0           0           0          -1
           5           0           0           0           0           0
           0           0           0           0           0           0
           1           0           0           0           0           0
           0           0      100000           0          -1           0
           0           0           0           0           0           0
           0           0           0           1           0           0
           0 -2000000000           1           0           0           0
           0           0           4          52           0           0
           0           0           0           0           0           0
           0           0           0           3           0           1
           0           0           0           0           0           0
           0           0           0           0           0           0
           0           0           0           0           0           0
           0           0           0           0           0           0
           0           0           0           0
Num RLSW                                   I               52
RLSW                                       R   N=          52
  1.00000000E+00  1.00000000E+00  1.00000000E+00  1.00000000E+00  1.00000000E+00
  0.00000000E+00  0.00000000E+00  1.00000000E+00  0.00000000E+00  0.00000000E+00
  0.00000000E+00  0.00000000E+00  1.00000000E+00  0.00000000E+00  0.00000000E+00
  0.00000000E+00  0.00000000E+00  1.00000000E+00  0.00000000E+00  0.00000000E+00
  0.00000000E+00  0.00000000E+00  1.00000000E+00  0.00000000E+00  0.00000000E+00
  0.00000000E+00  0.00000000E+00  1.00000000E+00  0.00000000E+00  0.00000000E+00
  0.00000000E+00  0.00000000E+00  1.00000000E+00  0.00000000E+00  0.00000000E+00
  0.00000000E+00  0.00000000E+00  0.00000000E+00  1.00000000E+00  1.00000000E+00
  0.00000000E+00  1.00000000E+00  0.00000000E+00  0.00000000E+00  0.00000000E+00
  0.00000000E+00  0.00000000E+00  0.00000000E+00  0.00000000E+00  0.00000000E+00
  0.00000000E+00  0.00000000E+00
MxBond                                     I                2
NBond                                      I   N=           3
           2           1           1
IBond                                      I   N=           6
           2           3           1           0           1           0
RBond                                      R   N=           6
  1.00000000E+00  1.00000000E+00  1.00000000E+00  0.00000000E+00  1.00000000E+00
  0.00000000E+00
Virial Ratio                               R      2.001084578633157E+00
SCF Energy                                 R     -7.602711292833584E+01
Total Energy                               R     -7.602711292833584E+01
RMS Density                                R      4.409863429522288E-09
Job Status                                 I                1
Nuclear derivative order                   I                0
External E-field                           R   N=          35
  0.00000000E+00  0.00000000E+00  0.00000000E+00  0.00000000E+00  0.00000000E+00
  0.00000000E+00  0.00000000E+00  0.00000000E+00  0.00000000E+00  0.00000000E+00
  0.00000000E+00  0.00000000E+00  0.00000000E+00  0.00000000E+00  0.00000000E+00
  0.00000000E+00  0.00000000E+00  0.00000000E+00  0.00000000E+00  0.00000000E+00
  0.00000000E+00  0.00000000E+00  0.00000000E+00  0.00000000E+00  0.00000000E+00
  0.00000000E+00  0.00000000E+00  0.00000000E+00  0.00000000E+00  0.00000000E+00
  0.00000000E+00  0.00000000E+00  0.00000000E+00  0.00000000E+00  0.00000000E+00
IOpCl                                      I                0
IROHF                                      I                0
Alpha Orbital Energies                     R   N=          25
 -2.05519267E+01 -1.33671657E+00 -6.99253061E-01 -5.66851025E-01 -4.93487842E-01
  1.83277316E-01  2.56041930E-01  7.88643972E-01  8.53912001E-01  1.15906048E+00
  1.20002889E+00  1.25310112E+00  1.42332635E+00  1.47608890E+00  1.67420967E+00
  1.74579246E+00  1.93435021E+00  2.45137482E+00  2.46602584E+00  3.28507861E+00
  3.33798193E+00  3.50946106E+00  3.86053703E+00  4.14687584E+00  5.96474663E+00
Alpha MO coefficients                      R   N=         625
  9.96773907E-01  1.62220256E-02 -1.05691138E-03  0.00000000E+00  0.00000000E+00
 -1.64115533E-03  0.00000000E+00  0.00000000E+00  3.96105906E-04 -1.20261227E-03
 -1.06602351E-03 -1.11226170E-03  0.00000000E+00  0.00000000E+00  0.00000000E+00
 -1.65859781E-04  2.05155940E-04  0.00000000E+00  4.19481890E-04 -3.39438662E-04
 -1.65859781E-04  2.05155940E-04  0.00000000E+00 -4.19481890E-04 -3.39438662E-04
 -2.07655156E-01  4.40810782E-01  3.69685419E-01  0.00000000E+00  0.00000000E+00
 -7.90504802E-02  0.00000000E+00  0.00000000E+00  1.35859050E-02 -5.88029393E-06
  5.45619158E-03  4.56768885E-03  0.00000000E+00  0.00000000E+00  0.00000000E+00
  1.93452407E-01  1.10495661E-02  0.00000000E+00 -3.68520678E-02  2.00567226E-02
  1.93452407E-01  1.10495661E-02  0.00000000E+00  3.68520678E-02  2.00567226E-02
  0.00000000E+00  0.00000000E+00  0.00000000E+00  0.00000000E+00  4.90068248E-01
  0.00000000E+00  0.00000000E+00  2.22028244E-01  0.00000000E+00  0.00000000E+00
  0.00000000E+00  0.00000000E+00  0.00000000E+00  0.00000000E+00 -2.67860251E-02
  3.27817744E-01  8.98682988E-02  0.00000000E+00 -2.33125493E-02  3.26506957E-02
 -3.27817744E-01 -8.98682988E-02  0.00000000E+00 -2.33125493E-02 -3.26506957E-02
 -7.22788438E-02  1.53365666E-01  3.64898201E-01  0.00000000E+00  0.00000000E+00
  5.45902748E-01  0.00000000E+00  0.00000000E+00  3.63971191E-01  5.97459222E-03
 -2.57120048E-03 -2.50765788E-02  0.00000000E+00  0.00000000E+00  0.00000000E+00
 -2.06707978E-01 -4.29560048E-02  0.00000000E+00  3.07691925E-02  8.41318156E-03
 -2.06707978E-01 -4.29560048E-02  0.00000000E+00 -3.07691925E-02  8.41318156E-03
  0.00000000E+00  0.00000000E+00  0.00000000E+00  6.31313094E-01  0.00000000E+00
  0.00000000E+00  4.95559960E-01  0.00000000E+00  0.00000000E+00  0.00000000E+00
  0.00000000E+00  0.00000000E+00  0.00000000E+00 -1.81787909E-02  0.00000000E+00
  0.00000000E+00  0.00000000E+00  3.10377504E-02  0.00000000E+00  0.00000000E+00
  0.00000000E+00  0.00000000E+00  3.10377504E-02  0.00000000E+00  0.00000000E+00
 -9.28923273E-02  7.97860192E-02  1.06732263E+00  0.00000000E+00  0.00000000E+00
 -1.89326484E-01  0.00000000E+00  0.00000000E+00 -3.41552281E-01 -4.10549396E-02
 -2.62437534E-02 -2.23853449E-02  0.00000000E+00  0.00000000E+00  0.00000000E+00
 -6.00955596E-02 -8.37725788E-01  0.00000000E+00  1.33000795E-02 -1.26038114E-02
 -6.00955596E-02 -8.37725788E-01  0.00000000E+00 -1.33000795E-02 -1.26038114E-02
  0.00000000E+00  0.00000000E+00  0.00000000E+00  0.00000000E+00 -2.83398478E-01
  0.00000000E+00  0.00000000E+00 -6.70943160E-01  0.00000000E+00  0.00000000E+00
  0.00000000E+00  0.00000000E+00  0.00000000E+00  0.00000000E+00  2.11913528E-02
  2.63134765E-02  1.44345767E+00  0.00000000E+00 -2.07825242E-02  1.70756851E-02
 -2.63134765E-02 -1.44345767E+00  0.00000000E+00 -2.07825242E-02 -1.70756851E-02
  0.00000000E+00  0.00000000E+00  0.00000000E+00  0.00000000E+00 -2.67824386E-01
  0.00000000E+00  0.00000000E+00 -4.60429960E-01  0.00000000E+00  0.00000000E+00
  0.00000000E+00  0.00000000E+00  0.00000000E+00  0.00000000E+00 -1.11705139E-01
  9.44346777E-01 -6.87187806E-01  0.00000000E+00  7.38336460E-02 -1.52689146E-01
 -9.44346777E-01  6.87187806E-01  0.00000000E+00  7.38336460E-02  1.52689146E-01
  5.09853229E-02 -2.56460098E-01  3.17919015E-01  0.00000000E+00  0.00000000E+00
  3.29535171E-01  0.00000000E+00  0.00000000E+00 -9.69895244E-03 -9.23990495E-02
  9.30055454E-02  1.78302578E-03  0.00000000E+00  0.00000000E+00  0.00000000E+00
  7.87756294E-01 -5.47795987E-01  0.00000000E+00  2.95887997E-01 -5.94028671E-02
  7.87756294E-01 -5.47795987E-01  0.00000000E+00 -2.95887997E-01 -5.94028671E-02
  3.58085615E-02 -1.48290621E-01 -5.63272377E-01  0.00000000E+00  0.00000000E+00
 -7.49574981E-01  0.00000000E+00  0.00000000E+00  1.26392893E+00 -4.81401639E-02
 -4.26341760E-02 -6.31818004E-02  0.00000000E+00  0.00000000E+00  0.00000000E+00
  5.34296053E-01  8.74062260E-02  0.00000000E+00 -9.36018630E-02  2.44760936E-01
  5.34296053E-01  8.74062260E-02  0.00000000E+00  9.36018630E-02  2.44760936E-01
  0.00000000E+00  0.00000000E+00  0.00000000E+00 -9.67744681E-01  0.00000000E+00
  0.00000000E+00  1.02496882E+00  0.00000000E+00  0.00000000E+00  0.00000000E+00
  0.00000000E+00  0.00000000E+00  0.00000000E+00  3.52873632E-03  0.00000000E+00
  0.00000000E+00  0.00000000E+00  8.49523753E-03  0.00000000E+00  0.00000000E+00
  0.00000000E+00  0.00000000E+00  8.49523753E-03  0.00000000E+00  0.00000000E+00
  0.00000000E+00  0.00000000E+00  0.00000000E+00  0.00000000E+00 -7.34397317E-01
  0.00000000E+00  0.00000000E+00  1.76368607E+00  0.00000000E+00  0.00000000E+00
  0.00000000E+00  0.00000000E+00  0.00000000E+00  0.00000000E+00 -4.44742450E-02
 -3.78899392E-01 -8.24958198E-01  0.00000000E+00  3.02555086E-01 -1.86658745E-01
  3.78899392E-01  8.24958198E-01  0.00000000E+00  3.02555086E-01  1.86658745E-01
  2.75706866E-03 -6.38714344E-01  1.06233105E+00  0.00000000E+00  0.00000000E+00
 -8.65959017E-02  0.00000000E+00  0.00000000E+00  5.52671022E-01 -1.58290372E-01
 -1.87536406E-01 -1.55148897E-02  0.00000000E+00  0.00000000E+00  0.00000000E+00
  2.20362011E-01 -2.74119847E-01  0.00000000E+00 -3.06570235E-01 -5.18363404E-01
  2.20362011E-01 -2.74119847E-01  0.00000000E+00  3.06570235E-01 -5.18363404E-01
  0.00000000E+00  0.00000000E+00  0.00000000E+00  0.00000000E+00  0.00000000E+00
  0.00000000E+00  0.00000000E+00  0.00000000E+00  0.00000000E+00  0.00000000E+00
  0.00000000E+00  0.00000000E+00  1.31369079E-01  0.00000000E+00  0.00000000E+00
  0.00000000E+00  0.00000000E+00  6.85582615E-01  0.00000000E+00  0.00000000E+00
  0.00000000E+00  0.00000000E+00 -6.85582615E-01  0.00000000E+00  0.00000000E+00
  0.00000000E+00  0.00000000E+00  0.00000000E+00 -1.94841082E-02  0.00000000E+00
  0.00000000E+00 -6.33734753E-01  0.00000000E+00  0.00000000E+00  0.00000000E+00
  0.00000000E+00  0.00000000E+00  0.00000000E+00 -1.60842437E-01  0.00000000E+00
  0.00000000E+00  0.00000000E+00  7.66959868E-01  0.00000000E+00  0.00000000E+00
  0.00000000E+00  0.00000000E+00  7.66959868E-01  0.00000000E+00  0.00000000E+00
 -7.60915826E-02 -1.31554741E+00  3.20214343E+00  0.00000000E+00  0.00000000E+00
  1.37876864E-02  0.00000000E+00  0.00000000E+00 -1.10237149E+00 -1.09223444E-01
 -2.73758695E-01 -3.70089500E-01  0.00000000E+00  0.00000000E+00  0.00000000E+00
 -8.27623330E-01 -3.79067665E-01  0.00000000E+00  3.31663041E-01  1.57491209E-01
 -8.27623330E-01 -3.79067665E-01  0.00000000E+00 -3.31663041E-01  1.57491209E-01
  0.00000000E+00  0.00000000E+00  0.00000000E+00  0.00000000E+00 -1.01998516E-02
  0.00000000E+00  0.00000000E+00  9.00964416E-01  0.00000000E+00  0.00000000E+00
  0.00000000E+00  0.00000000E+00  0.00000000E+00  0.00000000E+00  2.93911430E-02
 -3.87393400E-01 -9.14493902E-02  0.00000000E+00 -4.71579943E-01 -6.93251717E-01
  3.87393400E-01  9.14493902E-02  0.00000000E+00 -4.71579943E-01  6.93251717E-01
  0.00000000E+00  0.00000000E+00  0.00000000E+00  0.00000000E+00  8.38595638E-01
  0.00000000E+00  0.00000000E+00  1.52334528E-01  0.00000000E+00  0.00000000E+00
  0.00000000E+00  0.00000000E+00  0.00000000E+00  0.00000000E+00  1.38383998E-01
 -2.94681801E-01 -3.30103488E-01  0.00000000E+00  7.24333568E-01 -5.54765593E-01
  2.94681801E-01  3.30103488E-01  0.00000000E+00  7.24333568E-01  5.54765593E-01
 -1.95711594E-02  4.82170629E-01  8.94162202E-01  0.00000000E+00  0.00000000E+00
 -6.93412770E-01  0.00000000E+00  0.00000000E+00 -2.27458954E-01  3.37163726E-01
 -5.22405475E-02  4.70865237E-02  0.00000000E+00  0.00000000E+00  0.00000000E+00
 -5.39258977E-01 -1.76058039E-01  0.00000000E+00  7.76409085E-01 -5.51979822E-01
 -5.39258977E-01 -1.76058039E-01  0.00000000E+00 -7.76409085E-01 -5.51979822E-01
  0.00000000E+00  0.00000000E+00  0.00000000E+00  1.16794704E-02  0.00000000E+00
  0.00000000E+00 -3.11488811E-01  0.00000000E+00  0.00000000E+00  0.00000000E+00
  0.00000000E+00  0.00000000E+00  0.00000000E+00  1.04271176E+00  0.00000000E+00
  0.00000000E+00  0.00000000E+00  3.98171663E-01  0.00000000E+00  0.00000000E+00
  0.00000000E+00  0.00000000E+00  3.98171663E-01  0.00000000E+00  0.00000000E+00
  0.00000000E+00  0.00000000E+00  0.00000000E+00  0.00000000E+00  0.00000000E+00
  0.00000000E+00  0.00000000E+00  0.00000000E+00  0.00000000E+00  0.00000000E+00
  0.00000000E+00  0.00000000E+00  1.06604835E+00  0.00000000E+00  0.00000000E+00
  0.00000000E+00  0.00000000E+00 -3.71213958E-01  0.00000000E+00  0.00000000E+00
  0.00000000E+00  0.00000000E+00  3.71213958E-01  0.00000000E+00  0.00000000E+00
 -1.87301733E-02 -1.33407947E-01  5.73283363E-01  0.00000000E+00  0.00000000E+00
 -1.92474060E-02  0.00000000E+00  0.00000000E+00 -5.39096722E-01 -4.06346416E-01
 -7.07935380E-01  1.07015471E+00  0.00000000E+00  0.00000000E+00  0.00000000E+00
 -3.06864317E-01 -3.94153765E-02  0.00000000E+00  3.53109889E-01  3.14427270E-01
 -3.06864317E-01 -3.94153765E-02  0.00000000E+00 -3.53109889E-01  3.14427270E-01
 -8.20275134E-02 -8.71686356E-02  2.31210813E+00  0.00000000E+00  0.00000000E+00
 -3.98757768E-01  0.00000000E+00  0.00000000E+00 -9.16290330E-01 -1.13174689E+00
  8.68297797E-01  6.77475089E-02  0.00000000E+00  0.00000000E+00  0.00000000E+00
 -1.22432534E+00 -1.97212198E-01  0.00000000E+00  6.13004301E-01 -4.88880008E-01
 -1.22432534E+00 -1.97212198E-01  0.00000000E+00 -6.13004301E-01 -4.88880008E-01
  0.00000000E+00  0.00000000E+00  0.00000000E+00  0.00000000E+00 -4.68166043E-01
  0.00000000E+00  0.00000000E+00 -1.14393857E+00  0.00000000E+00  0.00000000E+00
  0.00000000E+00  0.00000000E+00  0.00000000E+00  0.00000000E+00  1.32540326E+00
  1.08544326E+00  2.88481130E-01  0.00000000E+00 -6.05718425E-01  4.93803766E-01
 -1.08544326E+00 -2.88481130E-01  0.00000000E+00 -6.05718425E-01 -4.93803766E-01
 -4.26888711E-01  1.65858607E+00  1.44553372E+00  0.00000000E+00  0.00000000E+00
  1.84158767E-01  0.00000000E+00  0.00000000E+00  2.25755971E-02 -1.36025786E+00
 -1.59302538E+00 -1.48336973E+00  0.00000000E+00  0.00000000E+00  0.00000000E+00
  2.45780179E-01 -1.86280507E-01  0.00000000E+00 -2.12925518E-01  1.81506204E-01
  2.45780179E-01 -1.86280507E-01  0.00000000E+00  2.12925518E-01  1.81506204E-01
Orthonormal basis                          R   N=         625
  3.59537711E-02  1.66170568E-01  1.89547808E-01  0.00000000E+00  0.00000000E+00
 -3.10049643E-02  0.00000000E+00  0.00000000E+00 -4.62001053E-02  1.28508641E-01
  1.40157119E-01  1.37262144E-01  0.00000000E+00  0.00000000E+00  0.00000000E+00
  1.10515375E-01  1.33626678E-01  0.00000000E+00 -7.89651191E-02  4.41027336E-02
  1.10515375E-01  1.33626678E-01  0.00000000E+00  7.89651191E-02  4.41027336E-02
  4.97301142E-02  1.57191899E-01  8.05350676E-02  0.00000000E+00  0.00000000E+00
  2.69310272E-01  0.00000000E+00  0.00000000E+00  3.93470994E-01  1.16763710E-01
  1.46699935E-01  5.18432464E-02  0.00000000E+00  0.00000000E+00  0.00000000E+00
 -1.55034294E-01 -1.25704788E-01  0.00000000E+00  6.48252677E-02  2.12825815E-01
 -1.55034294E-01 -1.25704788E-01  0.00000000E+00 -6.48252677E-02  2.12825815E-01
 -7.13159138E-02 -1.24142082E-01  7.04841446E-02  0.00000000E+00  0.00000000E+00
  2.92420332E-01  0.00000000E+00  0.00000000E+00  1.00958250E-01 -4.79794884E-02
  1.07149565E-02 -1.34101018E-01  0.00000000E+00  0.00000000E+00  0.00000000E+00
  1.62230252E-01  2.76745586E-01  0.00000000E+00  3.75296300E-01 -4.43730659E-02
  1.62230252E-01  2.76745586E-01  0.00000000E+00 -3.75296300E-01 -4.43730659E-02
 -3.98429977E-02 -6.32515543E-02 -7.30463110E-02  0.00000000E+00  0.00000000E+00
 -4.21624764E-01  0.00000000E+00  0.00000000E+00 -1.73374686E-01 -1.07577895E-01
  3.53303081E-01 -3.69022214E-01  0.00000000E+00  0.00000000E+00  0.00000000E+00
  9.43506150E-02 -5.27205677E-02  0.00000000E+00  1.49341562E-01  4.13657679E-01
  9.43506150E-02 -5.27205677E-02  0.00000000E+00 -1.49341562E-01  4.13657679E-01
  9.87035853E-01  2.80499796E-02  4.02496109E-03  0.00000000E+00  0.00000000E+00
  3.42916172E-03  0.00000000E+00  0.00000000E+00 -4.01084806E-02 -9.79309986E-02
 -8.79616401E-02 -1.33080487E-01  0.00000000E+00  0.00000000E+00  0.00000000E+00
  1.44814588E-02  2.23358290E-02  0.00000000E+00  4.94705241E-02 -9.46991689E-03
  1.44814588E-02  2.23358290E-02  0.00000000E+00 -4.94705241E-02 -9.46991689E-03
 -1.36667939E-02  6.90455614E-02  3.89830106E-02  0.00000000E+00  0.00000000E+00
 -1.84707940E-01  0.00000000E+00  0.00000000E+00 -7.16640795E-02  9.78033597E-01
 -3.76962424E-01 -4.81512335E-01  0.00000000E+00  0.00000000E+00  0.00000000E+00
 -1.30466902E-01  4.27495889E-02  0.00000000E+00  9.17738396E-02 -2.56351270E-02
 -1.30466902E-01  4.27495889E-02  0.00000000E+00 -9.17738396E-02 -2.56351270E-02
 -1.08361474E-02  2.27939430E-01 -1.48247411E-01  0.00000000E+00  0.00000000E+00
  7.54598182E-01  0.00000000E+00  0.00000000E+00 -6.21998137E-01  1.58555583E-01
  5.86582008E-01 -4.49360561E-01  0.00000000E+00  0.00000000E+00  0.00000000E+00
  1.26288662E-01 -3.01097034E-01  0.00000000E+00 -9.50649351E-02 -2.05142245E-01
  1.26288662E-01 -3.01097034E-01  0.00000000E+00  9.50649351E-02 -2.05142245E-01
  1.71255081E-02  3.93846901E-01 -1.00174683E-01  0.00000000E+00  0.00000000E+00
 -1.12343129E-01  0.00000000E+00  0.00000000E+00 -3.49236409E-01  1.83932475E-01
 -3.71227144E-01  7.20047443E-01  0.00000000E+00  0.00000000E+00  0.00000000E+00
  3.62248972E-01 -5.11394969E-01  0.00000000E+00  5.39366796E-01  5.27472159E-02
  3.62248972E-01 -5.11394969E-01  0.00000000E+00 -5.39366796E-01  5.27472159E-02
 -2.27489851E-02 -3.30870929E-01 -1.62674222E-01  0.00000000E+00  0.00000000E+00
  7.47965170E-01  0.00000000E+00  0.00000000E+00 -8.31067399E-01 -1.23454102E-02
 -6.95992452E-01  2.96479282E-01  0.00000000E+00  0.00000000E+00  0.00000000E+00
 -1.91777213E-01  2.82583759E-01  0.00000000E+00 -1.96521045E-01  7.44836944E-01
 -1.91777213E-01  2.82583759E-01  0.00000000E+00  1.96521045E-01  7.44836944E-01
 -1.21262732E-01  1.44322509E+00 -6.31167009E-01  0.00000000E+00  0.00000000E+00
 -2.40142426E-01  0.00000000E+00  0.00000000E+00 -4.72159300E-01 -4.26091528E-01
  1.32657605E-01  4.48720756E-02  0.00000000E+00  0.00000000E+00  0.00000000E+00
 -8.14598302E-01  5.15150770E-01  0.00000000E+00  3.77002845E-01 -1.49251802E-01
 -8.14598302E-01  5.15150770E-01  0.00000000E+00 -3.77002845E-01 -1.49251802E-01
 -4.34667375E-01  1.66468358E+00  5.75661347E-01  0.00000000E+00  0.00000000E+00
  2.75172922E-01  0.00000000E+00  0.00000000E+00  5.53384850E-01 -1.05866492E+00
 -1.60702967E+00 -1.45998471E+00  0.00000000E+00  0.00000000E+00  0.00000000E+00
  7.96522349E-01 -1.89227703E-01  0.00000000E+00 -4.79152422E-01  2.77957326E-01
  7.96522349E-01 -1.89227703E-01  0.00000000E+00  4.79152422E-01  2.77957326E-01
 -2.45913371E-01 -4.60145479E-01  4.57501033E+00  0.00000000E+00  0.00000000E+00
 -2.15847067E-01  0.00000000E+00  0.00000000E+00 -1.61784336E+00 -1.04302458E+00
 -1.85751395E-01 -3.57298395E-01  0.00000000E+00  0.00000000E+00  0.00000000E+00
 -1.44809902E+00 -6.98478471E-01  0.00000000E+00  7.46081369E-01 -3.35879022E-01
 -1.44809902E+00 -6.98478471E-01  0.00000000E+00 -7.46081369E-01 -3.35879022E-01
  0.00000000E+00  0.00000000E+00  0.00000000E+00  0.00000000E+00  0.00000000E+00
  0.00000000E+00  0.00000000E+00  0.00000000E+00  0.00000000E+00  0.00000000E+00
  0.00000000E+00  0.00000000E+00  6.34418523E-01  0.00000000E+00  0.00000000E+00
  0.00000000E+00  0.00000000E+00  4.17617015E-01  0.00000000E+00  0.00000000E+00
  0.00000000E+00  0.00000000E+00 -4.17617015E-01  0.00000000E+00  0.00000000E+00
  0.00000000E+00  0.00000000E+00  0.00000000E+00  0.00000000E+00  0.00000000E+00
  0.00000000E+00  0.00000000E+00  0.00000000E+00  0.00000000E+00  0.00000000E+00
  0.00000000E+00  0.00000000E+00 -8.66735282E-01  0.00000000E+00  0.00000000E+00
  0.00000000E+00  0.00000000E+00  6.58345922E-01  0.00000000E+00  0.00000000E+00
  0.00000000E+00  0.00000000E+00 -6.58345922E-01  0.00000000E+00  0.00000000E+00
  0.00000000E+00  0.00000000E+00  0.00000000E+00  3.58133231E-01  0.00000000E+00
  0.00000000E+00  4.39239826E-01  0.00000000E+00  0.00000000E+00  0.00000000E+00
  0.00000000E+00  0.00000000E+00  0.00000000E+00 -1.23657434E-01  0.00000000E+00
  0.00000000E+00  0.00000000E+00  2.98847064E-01  0.00000000E+00  0.00000000E+00
  0.00000000E+00  0.00000000E+00  2.98847064E-01  0.00000000E+00  0.00000000E+00
  0.00000000E+00  0.00000000E+00  0.00000000E+00  3.44299933E-01  0.00000000E+00
  0.00000000E+00  2.15738830E-01  0.00000000E+00  0.00000000E+00  0.00000000E+00
  0.00000000E+00  0.00000000E+00  0.00000000E+00  8.21118330E-01  0.00000000E+00
  0.00000000E+00  0.00000000E+00 -1.94964184E-01  0.00000000E+00  0.00000000E+00
  0.00000000E+00  0.00000000E+00 -1.94964184E-01  0.00000000E+00  0.00000000E+00
  0.00000000E+00  0.00000000E+00  0.00000000E+00  8.77476821E-01  0.00000000E+00
  0.00000000E+00 -2.40399133E-01  0.00000000E+00  0.00000000E+00  0.00000000E+00
  0.00000000E+00  0.00000000E+00  0.00000000E+00 -5.21820158E-01  0.00000000E+00
  0.00000000E+00  0.00000000E+00 -4.57069369E-01  0.00000000E+00  0.00000000E+00
  0.00000000E+00  0.00000000E+00 -4.57069369E-01  0.00000000E+00  0.00000000E+00
  0.00000000E+00  0.00000000E+00  0.00000000E+00 -5.64654411E-01  0.00000000E+00
  0.00000000E+00  1.22373166E+00  0.00000000E+00  0.00000000E+00  0.00000000E+00
  0.00000000E+00  0.00000000E+00  0.00000000E+00 -3.89407586E-01  0.00000000E+00
  0.00000000E+00  0.00000000E+00 -6.41537696E-01  0.00000000E+00  0.00000000E+00
  0.00000000E+00  0.00000000E+00 -6.41537696E-01  0.00000000E+00  0.00000000E+00
  0.00000000E+00  0.00000000E+00  0.00000000E+00  0.00000000E+00  3.02026745E-01
  0.00000000E+00  0.00000000E+00  4.01444857E-01  0.00000000E+00  0.00000000E+00
  0.00000000E+00  0.00000000E+00  0.00000000E+00  0.00000000E+00 -7.32964504E-02
  2.30054896E-01  1.25713447E-01  0.00000000E+00  1.65168389E-02  1.36463833E-01
 -2.30054896E-01 -1.25713447E-01  0.00000000E+00  1.65168389E-02 -1.36463833E-01
  0.00000000E+00  0.00000000E+00  0.00000000E+00  0.00000000E+00 -3.86197754E-01
  0.00000000E+00  0.00000000E+00  1.48076810E-01  0.00000000E+00  0.00000000E+00
  0.00000000E+00  0.00000000E+00  0.00000000E+00  0.00000000E+00  2.36860644E-01
  2.03776582E-01  1.82608676E-01  0.00000000E+00  3.74663160E-01 -2.83922899E-01
 -2.03776582E-01 -1.82608676E-01  0.00000000E+00  3.74663160E-01  2.83922899E-01
  0.00000000E+00  0.00000000E+00  0.00000000E+00  0.00000000E+00  1.83394729E-01
  0.00000000E+00  0.00000000E+00  7.81129608E-02  0.00000000E+00  0.00000000E+00
  0.00000000E+00  0.00000000E+00  0.00000000E+00  0.00000000E+00  7.58860677E-01
 -2.04221226E-01 -3.45003569E-02  0.00000000E+00  1.51741590E-01  2.43652672E-01
  2.04221226E-01  3.45003569E-02  0.00000000E+00  1.51741590E-01 -2.43652672E-01
  0.00000000E+00  0.00000000E+00  0.00000000E+00  0.00000000E+00 -4.83250651E-01
  0.00000000E+00  0.00000000E+00 -4.11233320E-02  0.00000000E+00  0.00000000E+00
  0.00000000E+00  0.00000000E+00  0.00000000E+00  0.00000000E+00 -4.42605931E-01