Water 6-31G** (SP shells, Cartesian 6D)                                 
SP        RHF                                                         6-31G(d,p)          
Number of atoms                            I                3
Info1-9                                    I   N=           9
          13          13           0           0           0         110
           1           1           2
Full Title                                 C   N=           4
Water 6-31G** (SP shells, Cartesian 6D)         
Route                                      C   N=           3
#p HF/6-31G(d,p) 6D pop=full gfprint
Charge                                     I                0
Multiplicity                               I                1
Number of electrons                        I               10
Number of alpha electrons                  I                5
Number of beta electrons                   I                5
Number of basis functions                  I               25
Number of independent functions            I               25
Number of point charges in /Mol/           I                0
Number of translation vectors              I                0
Atomic numbers                             I   N=           3
           8           1           1
Nuclear charges                            R   N=           3
  8.00000000E+00  1.00000000E+00  1.00000000E+00
Current cartesian coordinates              R   N=           9
  1.35730589E-17  1.35730589E-17  2.21664874E-01  2.08559944E-16  1.43090062E+00
 -8.86659498E-01 -4.92379202E-16 -1.43090062E+00 -8.86659498E-01
Number of symbols in /Mol/                 I                0
Force Field                                I                0
Atom Types                                 C   N=           3
                                    
Int Atom Types                             I   N=           3
           0           0           0
MM charges                                 R   N=           3
  0.00000000E+00  0.00000000E+00  0.00000000E+00
Integer atomic weights                     I   N=           3
          16           1           1
Real atomic weights                        R   N=           3
  1.59949146E+01  1.00782504E+00  1.00782504E+00
Atom fragment info                         I   N=           3
           0           0           0
Atom residue num                           I   N=           3
           0           0           0
Nuclear spins                              I   N=           3
           0           1           1
Nuclear ZEff                               R   N=           3
 -5.60000000E+00 -1.00000000E+00 -1.00000000E+00
Nuclear ZNuc                               R   N=           3
  8.00000000E+00  1.00000000E+00  1.00000000E+00
Nuclear QMom                               R   N=           3
  0.00000000E+00  0.00000000E+00  0.00000000E+00
Nuclear GFac                               R   N=           3
  0.00000000E+00  2.79284600E+00  2.79284600E+00
MicOpt                                     I   N=           3
          -1          -1          -1
Number of residues                         I                0
Number of secondary structures             I                0
SymInf integers                            I   N=          26
           2           4           1           1           1          -1
          -1           1          -1           1           1           1
          -1           1           0           0           0           0
           0           0           0           0           0           0
           0           0
RotTr to input orientation                 R   N=          12
  1.00000000E+00 -1.83697020E-16 -6.12323400E-17  1.83697020E-16  1.00000000E+00
 -6.12323400E-17  6.12323400E-17  6.12323400E-17  1.00000000E+00  0.00000000E+00
  0.00000000E+00  0.00000000E+00
Number of contracted shells                I               10
Number of primitive shells                 I               21
Pure/Cartesian d shells                    I                1
Pure/Cartesian f shells                    I                0
Highest angular momentum                   I                2
Largest degree of contraction              I                6
Shell types                                I   N=          10
           0          -1          -1           2           0           0
           1           0           0           1
Number of primitives per shell             I   N=          10
           6           3           1           1           3           1
           1           3           1           1
Shell to atom map                          I   N=          10
           1           1           1           1           2           2
           2           3           3           3
Primitive exponents                        R   N=          21
  5.48467166E+03  8.25234946E+02  1.88046958E+02  5.29645000E+01  1.68975704E+01
  5.79963534E+00  1.55396162E+01  3.59993359E+00  1.01376175E+00  2.70005823E-01
  8.00000000E-01  1.87311370E+01  2.82539436E+00  6.40121692E-01  1.61277759E-01
  1.10000000E+00  1.87311370E+01  2.82539436E+00  6.40121692E-01  1.61277759E-01
  1.10000000E+00
Contraction coefficients                   R   N=          21
  1.83107443E-03  1.39501722E-02  6.84450781E-02  2.32714336E-01  4.70192898E-01
  3.58520853E-01 -1.10777550E-01 -1.48026263E-01  1.13076702E+00  1.00000000E+00
  1.00000000E+00  3.34946043E-02  2.34726953E-01  8.13757326E-01  1.00000000E+00
  1.00000000E+00  3.34946043E-02  2.34726953E-01  8.13757326E-01  1.00000000E+00
  1.00000000E+00
P(S=P) Contraction coefficients            R   N=          21
  0.00000000E+00  0.00000000E+00  0.00000000E+00  0.00000000E+00  0.00000000E+00
  0.00000000E+00  7.08742682E-02  3.39752839E-01  7.27158577E-01  1.00000000E+00
  0.00000000E+00  0.00000000E+00  0.00000000E+00  0.00000000E+00  0.00000000E+00
  0.00000000E+00  0.00000000E+00  0.00000000E+00  0.00000000E+00  0.00000000E+00
  0.00000000E+00
Coordinates of each shell                  R   N=          30
  6.83057631E-34 -1.36611526E-33  2.21664874E-01  6.83057631E-34 -1.36611526E-33
  2.21664874E-01  6.83057631E-34 -1.36611526E-33  2.21664874E-01  6.83057631E-34
 -1.36611526E-33  2.21664874E-01  0.00000000E+00  1.43090062E+00 -8.86659498E-01
  0.00000000E+00  1.43090062E+00 -8.86659498E-01  0.00000000E+00  1.43090062E+00
 -8.86659498E-01 -1.75234787E-16 -1.43090062E+00 -8.86659498E-01 -1.75234787E-16
 -1.43090062E+00 -8.86659498E-01 -1.75234787E-16 -1.43090062E+00 -8.86659498E-01
Num ILSW                                   I              100
ILSW                                       I   N=         100
           0           1           0           0           2           0
           0           0           0           0           0          -1
           5           0           0           0           0           0
           0           0           0           0           0           0
           1           0           0           0           0           0
           0           0      100000           0          -1           0
           0           0           0           0           0           0
           0           0           0           1           0           0
           0 -2000000000           1           0           0           0
           0           0           4          52           0           0
           0           0           0           0           0           0
           0           0           0           3           0           1
           0           0           0           0           0           0
           0           0           0           0           0           0
           0           0           0           0           0           0
           0           0           0           0           0           0
           0           0           0           0
Num RLSW                                   I               52
RLSW                                       R   N=          52
  1.00000000E+00  1.00000000E+00  1.00000000E+00  1.00000000E+00  1.00000000E+00
  0.00000000E+00  0.00000000E+00  1.00000000E+00  0.00000000E+00  0.00000000E+00
  0.00000000E+00  0.00000000E+00  1.00000000E+00  0.00000000E+00  0.00000000E+00
  0.00000000E+00  0.00000000E+00  1.00000000E+00  0.00000000E+00  0.00000000E+00
  0.00000000E+00  0.00000000E+00  1.00000000E+00  0.00000000E+00  0.00000000E+00
  0.00000000E+00  0.00000000E+00  1.00000000E+00  0.00000000E+00  0.00000000E+00
  0.00000000E+00  0.00000000E+00  1.00000000E+00  0.00000000E+00  0.00000000E+00
  0.00000000E+00  0.00000000E+00  0.00000000E+00  1.00000000E+00  1.00000000E+00
  0.00000000E+00  1.00000000E+00  0.00000000E+00  0.00000000E+00  0.00000000E+00
  0.00000000E+00  0.00000000E+00  0.00000000E+00  0.00000000E+00  0.00000000E+00
  0.00000000E+00  0.00000000E+00
MxBond                                     I                2
NBond                                      I   N=           3
           2           1           1
IBond                                      I   N=           6
           2           3           1           0           1           0
RBond                                      R   N=           6
  1.00000000E+00  1.00000000E+00  1.00000000E+00  0.00000000E+00  1.00000000E+00
  0.00000000E+00
Virial Ratio                               R      2.002834491933202E+00
SCF Energy                                 R     -7.602312748981757E+01
Total Energy                               R     -7.602312748981757E+01
RMS Density                                R      3.784678821055168E-09
Job Status                                 I                1
Nuclear derivative order                   I                0
External E-field                           R   N=          35
  0.00000000E+00  0.00000000E+00  0.00000000E+00  0.00000000E+00  0.00000000E+00
  0.00000000E+00  0.00000000E+00  0.00000000E+00  0.00000000E+00  0.00000000E+00
  0.00000000E+00  0.00000000E+00  0.00000000E+00  0.00000000E+00  0.00000000E+00
  0.00000000E+00  0.00000000E+00  0.00000000E+00  0.00000000E+00  0.00000000E+00
  0.00000000E+00  0.00000000E+00  0.00000000E+00  0.00000000E+00  0.00000000E+00
  0.00000000E+00  0.00000000E+00  0.00000000E+00  0.00000000E+00  0.00000000E+00
  0.00000000E+00  0.00000000E+00  0.00000000E+00  0.00000000E+00  0.00000000E+00
IOpCl                                      I                0
IROHF                                      I                0
Alpha Orbital Energies                     R   N=          25
 -2.05607327E+01 -1.34005865E+00 -7.03078048E-01 -5.68709993E-01 -4.97123652E-01
  2.11992341E-01  3.04603723E-01  1.00394758E+00  1.08617110E+00  1.13271167E+00
  1.16888919E+00  1.29479756E+00  1.41444070E+00  1.80370490E+00  1.81738190E+00
  1.92526754E+00  2.57016590E+00  2.57607061E+00  2.80677023E+00  2.97929490E+00
  2.99008755E+00  3.37657751E+00  3.70921644E+00  3.92606265E+00  4.10848534E+00
Alpha MO coefficients                      R   N=         625
  9.94680564E-01  2.11367955E-02  0.00000000E+00  0.00000000E+00 -1.52308891E-03
  4.20965243E-03  0.00000000E+00  0.00000000E+00  2.23226041E-04 -3.90975658E-03
 -3.78580129E-03 -3.80152710E-03  0.00000000E+00  0.00000000E+00  0.00000000E+00
  4.56064950E-05 -3.20886931E-04  0.00000000E+00  3.36481380E-04 -2.35562134E-04
  4.56064950E-05 -3.20886931E-04  0.00000000E+00 -3.36481380E-04 -2.35562134E-04
 -2.10631102E-01  4.73055822E-01  0.00000000E+00  0.00000000E+00 -8.41939154E-02
  4.22819891E-01  0.00000000E+00  0.00000000E+00 -3.25302852E-02  1.34600708E-03
  6.42485633E-03  8.45844409E-03  0.00000000E+00  0.00000000E+00  0.00000000E+00
  1.44547338E-01  1.34787069E-02  0.00000000E+00 -2.14065023E-02  1.34496116E-02
  1.44547338E-01  1.34787069E-02  0.00000000E+00  2.14065023E-02  1.34496116E-02
  0.00000000E+00  0.00000000E+00  0.00000000E+00  5.01576925E-01  0.00000000E+00
  0.00000000E+00  0.00000000E+00  2.77322033E-01  0.00000000E+00  0.00000000E+00
  0.00000000E+00  0.00000000E+00  0.00000000E+00  0.00000000E+00 -3.36975117E-02
  2.40645022E-01  1.32403864E-01  0.00000000E+00 -1.11933071E-02  1.88265572E-02
 -2.40645022E-01 -1.32403864E-01  0.00000000E+00 -1.11933071E-02 -1.88265572E-02
 -7.30580559E-02  1.62970249E-01  0.00000000E+00  0.00000000E+00  5.53681525E-01
  3.37136265E-01  0.00000000E+00  0.00000000E+00  3.90037896E-01  9.69584699E-03
  4.63148412E-04 -3.73130245E-02  0.00000000E+00  0.00000000E+00  0.00000000E+00
 -1.45038153E-01 -9.20615083E-02  0.00000000E+00  1.50331308E-02  5.81122871E-03
 -1.45038153E-01 -9.20615083E-02  0.00000000E+00 -1.50331308E-02  5.81122871E-03
  0.00000000E+00  0.00000000E+00  6.38705018E-01  0.00000000E+00  0.00000000E+00
  0.00000000E+00  5.00474280E-01  0.00000000E+00  0.00000000E+00  0.00000000E+00
  0.00000000E+00  0.00000000E+00  0.00000000E+00 -2.75996676E-02  0.00000000E+00
  0.00000000E+00  0.00000000E+00  2.03893554E-02  0.00000000E+00  0.00000000E+00
  0.00000000E+00  0.00000000E+00  2.03893554E-02  0.00000000E+00  0.00000000E+00
 -1.00575726E-01  5.53558158E-02  0.00000000E+00  0.00000000E+00 -2.15998785E-01
  1.42140130E+00  0.00000000E+00  0.00000000E+00 -5.12857907E-01 -7.26305485E-02
 -5.36147809E-02 -4.20443867E-02  0.00000000E+00  0.00000000E+00  0.00000000E+00
 -5.47714941E-02 -1.04525500E+00  0.00000000E+00  3.75013197E-03 -1.72130936E-03
 -5.47714941E-02 -1.04525500E+00  0.00000000E+00 -3.75013197E-03 -1.72130936E-03
  0.00000000E+00  0.00000000E+00  0.00000000E+00 -3.30226073E-01  0.00000000E+00
  0.00000000E+00  0.00000000E+00 -8.56756436E-01  0.00000000E+00  0.00000000E+00
  0.00000000E+00  0.00000000E+00  0.00000000E+00  0.00000000E+00  3.72408091E-02
  5.44838502E-02  1.41405306E+00  0.00000000E+00 -1.49610084E-02  8.39089396E-03
 -5.44838502E-02 -1.41405306E+00  0.00000000E+00 -1.49610084E-02 -8.39089396E-03
  0.00000000E+00  0.00000000E+00  0.00000000E+00 -1.47369405E-01  0.00000000E+00
  0.00000000E+00  0.00000000E+00 -3.56674633E-01  0.00000000E+00  0.00000000E+00
  0.00000000E+00  0.00000000E+00  0.00000000E+00  0.00000000E+00 -2.74124271E-01
  7.70544509E-01 -6.22583177E-01  0.00000000E+00  5.34065516E-02 -1.04931013E-01
 -7.70544509E-01  6.22583177E-01  0.00000000E+00  5.34065516E-02  1.04931013E-01
  4.81623390E-02 -9.12059106E-02  0.00000000E+00  0.00000000E+00  5.89675901E-01
  1.30226525E-01  0.00000000E+00  0.00000000E+00 -4.44209413E-01 -1.30515767E-01
  3.10189110E-01  9.92947365E-02  0.00000000E+00  0.00000000E+00  0.00000000E+00
  5.86316000E-01 -5.33091735E-01  0.00000000E+00  1.97309137E-01 -7.37233252E-02
  5.86316000E-01 -5.33091735E-01  0.00000000E+00 -1.97309137E-01 -7.37233252E-02
 -4.66151681E-03 -9.09051048E-01  0.00000000E+00  0.00000000E+00 -5.40911917E-01
  1.63365655E+00  0.00000000E+00  0.00000000E+00  7.71529883E-01 -3.65499953E-01
 -2.32766996E-01 -3.30461636E-01  0.00000000E+00  0.00000000E+00  0.00000000E+00
  4.39953845E-01 -3.88728845E-01  0.00000000E+00 -3.54672377E-04  3.42261007E-02
  4.39953845E-01 -3.88728845E-01  0.00000000E+00  3.54672377E-04  3.42261007E-02
  0.00000000E+00  0.00000000E+00 -9.62612362E-01  0.00000000E+00  0.00000000E+00
  0.00000000E+00  1.04139179E+00  0.00000000E+00  0.00000000E+00  0.00000000E+00
  0.00000000E+00  0.00000000E+00  0.00000000E+00 -1.41641384E-02  0.00000000E+00
  0.00000000E+00  0.00000000E+00 -9.72850580E-03  0.00000000E+00  0.00000000E+00
  0.00000000E+00  0.00000000E+00 -9.72850580E-03  0.00000000E+00  0.00000000E+00
  0.00000000E+00  0.00000000E+00  0.00000000E+00 -8.78094087E-01  0.00000000E+00
  0.00000000E+00  0.00000000E+00  1.77258582E+00  0.00000000E+00  0.00000000E+00
  0.00000000E+00  0.00000000E+00  0.00000000E+00  0.00000000E+00 -1.50370186E-01
 -1.27942307E-01 -9.64076721E-01  0.00000000E+00  1.76025215E-01 -1.27846274E-01
  1.27942307E-01  9.64076721E-01  0.00000000E+00  1.76025215E-01  1.27846274E-01
 -8.24514398E-02 -1.37725401E+00  0.00000000E+00  0.00000000E+00  4.24365608E-01
  3.51661137E+00  0.00000000E+00  0.00000000E+00 -1.07947335E+00 -2.92547845E-01
 -6.02550274E-01 -3.43668905E-01  0.00000000E+00  0.00000000E+00  0.00000000E+00
 -3.49658673E-01 -7.65697864E-01  0.00000000E+00 -8.78250686E-03 -1.15446826E-01
 -3.49658673E-01 -7.65697864E-01  0.00000000E+00  8.78250686E-03 -1.15446826E-01
  0.00000000E+00  0.00000000E+00  0.00000000E+00  0.00000000E+00  0.00000000E+00
  0.00000000E+00  0.00000000E+00  0.00000000E+00  0.00000000E+00  0.00000000E+00
  0.00000000E+00  0.00000000E+00  6.72058722E-01  0.00000000E+00  0.00000000E+00
  0.00000000E+00  0.00000000E+00  3.54354120E-01  0.00000000E+00  0.00000000E+00
  0.00000000E+00  0.00000000E+00 -3.54354120E-01  0.00000000E+00  0.00000000E+00
 -2.83452716E-02 -2.91258039E-01  0.00000000E+00  0.00000000E+00  4.79020515E-02
  8.36284602E-01  0.00000000E+00  0.00000000E+00 -4.89236697E-01  2.56781060E-01
  2.47291484E-01 -7.82426355E-01  0.00000000E+00  0.00000000E+00  0.00000000E+00
 -2.32044426E-01 -1.37556516E-01  0.00000000E+00  1.81610134E-01  2.58173473E-01
 -2.32044426E-01 -1.37556516E-01  0.00000000E+00 -1.81610134E-01  2.58173473E-01
  0.00000000E+00  0.00000000E+00  2.74495544E-02  0.00000000E+00  0.00000000E+00
  0.00000000E+00  1.94046154E-01  0.00000000E+00  0.00000000E+00  0.00000000E+00
  0.00000000E+00  0.00000000E+00  0.00000000E+00  7.79999911E-01  0.00000000E+00
  0.00000000E+00  0.00000000E+00 -3.03940394E-01  0.00000000E+00  0.00000000E+00
  0.00000000E+00  0.00000000E+00 -3.03940394E-01  0.00000000E+00  0.00000000E+00
 -5.38019667E-02 -5.60401593E-01  0.00000000E+00  0.00000000E+00  2.13820369E-01
  1.41368959E+00  0.00000000E+00  0.00000000E+00 -6.51868802E-01 -1.08093254E+00
  5.05270508E-01  2.36711608E-02  0.00000000E+00  0.00000000E+00  0.00000000E+00
 -6.35605601E-01 -1.01101061E-01  0.00000000E+00 -1.56799858E-01  1.70147876E-01
 -6.35605601E-01 -1.01101061E-01  0.00000000E+00  1.56799858E-01  1.70147876E-01
  0.00000000E+00  0.00000000E+00  0.00000000E+00  4.18796280E-02  0.00000000E+00
  0.00000000E+00  0.00000000E+00 -5.00648249E-01  0.00000000E+00  0.00000000E+00
  0.00000000E+00  0.00000000E+00  0.00000000E+00  0.00000000E+00 -1.05748032E-01
  1.36205861E-01  9.52104042E-02  0.00000000E+00  4.89869981E-01  5.77022116E-01
 -1.36205861E-01 -9.52104042E-02  0.00000000E+00  4.89869981E-01 -5.77022116E-01
  0.00000000E+00  0.00000000E+00  0.00000000E+00  3.57748559E-01  0.00000000E+00
  0.00000000E+00  0.00000000E+00 -4.95156625E-01  0.00000000E+00  0.00000000E+00
  0.00000000E+00  0.00000000E+00  0.00000000E+00  0.00000000E+00  8.14527029E-01
  5.38866701E-01 -1.78224723E-01  0.00000000E+00  3.07688539E-01 -2.59612289E-01
 -5.38866701E-01  1.78224723E-01  0.00000000E+00  3.07688539E-01  2.59612289E-01
  0.00000000E+00  0.00000000E+00  0.00000000E+00  0.00000000E+00  0.00000000E+00
  0.00000000E+00  0.00000000E+00  0.00000000E+00  0.00000000E+00  0.00000000E+00
  0.00000000E+00  0.00000000E+00  8.93984235E-01  0.00000000E+00  0.00000000E+00
  0.00000000E+00  0.00000000E+00 -7.11943118E-01  0.00000000E+00  0.00000000E+00
  0.00000000E+00  0.00000000E+00  7.11943118E-01  0.00000000E+00  0.00000000E+00
  0.00000000E+00  0.00000000E+00 -2.85654365E-02  0.00000000E+00  0.00000000E+00
  0.00000000E+00 -4.09673325E-01  0.00000000E+00  0.00000000E+00  0.00000000E+00
  0.00000000E+00  0.00000000E+00  0.00000000E+00  7.42886197E-01  0.00000000E+00
  0.00000000E+00  0.00000000E+00  7.64614928E-01  0.00000000E+00  0.00000000E+00
  0.00000000E+00  0.00000000E+00  7.64614928E-01  0.00000000E+00  0.00000000E+00
  1.35462613E-02 -1.68430255E-01  0.00000000E+00  0.00000000E+00  1.45884537E-02
  2.06120831E-01  0.00000000E+00  0.00000000E+00 -4.76784578E-01 -4.93747990E-02
 -7.62576907E-01  9.54042535E-01  0.00000000E+00  0.00000000E+00  0.00000000E+00
 -1.04898357E-01 -6.47007292E-02  0.00000000E+00  4.77577305E-01  6.63819091E-01
 -1.04898357E-01 -6.47007292E-02  0.00000000E+00 -4.77577305E-01  6.63819091E-01
 -2.36932186E-01  2.73993937E-01  0.00000000E+00  0.00000000E+00 -4.84723416E-01
  2.69868774E+00  0.00000000E+00  0.00000000E+00 -8.03730447E-01 -1.14858337E+00
  4.14782449E-02 -3.09790696E-01  0.00000000E+00  0.00000000E+00  0.00000000E+00
 -8.09639021E-01 -5.37831849E-01  0.00000000E+00  7.58133160E-01 -4.88644447E-01
 -8.09639021E-01 -5.37831849E-01  0.00000000E+00 -7.58133160E-01 -4.88644447E-01
  0.00000000E+00  0.00000000E+00  0.00000000E+00 -7.54844722E-01  0.00000000E+00
  0.00000000E+00  0.00000000E+00 -1.30694245E+00  0.00000000E+00  0.00000000E+00
  0.00000000E+00  0.00000000E+00  0.00000000E+00  0.00000000E+00  1.47997690E+00
  1.21945591E+00  5.06038728E-01  0.00000000E+00 -8.13358226E-01  6.84790944E-01
 -1.21945591E+00 -5.06038728E-01  0.00000000E+00 -8.13358226E-01 -6.84790944E-01
 -4.06027902E-01  1.78511146E-01  0.00000000E+00  0.00000000E+00  4.73543989E-01
  2.61728210E+00  0.00000000E+00  0.00000000E+00  9.85550996E-02 -1.15092863E+00
 -1.95850336E+00 -1.56858188E+00  0.00000000E+00  0.00000000E+00  0.00000000E+00
  6.74408359E-01 -2.94699557E-01  0.00000000E+00 -4.73672695E-01  4.24878547E-01
  6.74408359E-01 -2.94699557E-01  0.00000000E+00  4.73672695E-01  4.24878547E-01
Orthonormal basis                          R   N=         625
  3.12851043E-02  1.57436411E-01  0.00000000E+00  0.00000000E+00 -3.23044649E-02
  1.97201938E-01  0.00000000E+00  0.00000000E+00 -5.11362295E-02  1.30894806E-01
  1.50589973E-01  1.44167095E-01  0.00000000E+00  0.00000000E+00  0.00000000E+00
  1.09377228E-01  1.50555385E-01  0.00000000E+00 -5.67008330E-02  3.31412011E-02
  1.09377228E-01  1.50555385E-01  0.00000000E+00  5.67008330E-02  3.31412011E-02
  5.05344755E-02  1.54125559E-01  0.00000000E+00  0.00000000E+00  3.44932453E-01
  1.15938518E-01  0.00000000E+00  0.00000000E+00  4.39752396E-01  1.25786703E-01
  1.40838396E-01  2.34850281E-02  0.00000000E+00  0.00000000E+00  0.00000000E+00
 -1.40745270E-01 -8.38660897E-02  0.00000000E+00  1.00430281E-01  1.70362571E-01
 -1.40745270E-01 -8.38660897E-02  0.00000000E+00 -1.00430281E-01  1.70362571E-01
 -1.27878349E-01 -2.07920421E-01  0.00000000E+00  0.00000000E+00  2.66536054E-01
  1.93375335E-02  0.00000000E+00  0.00000000E+00 -2.35005499E-02 -3.95909471E-02
  6.13978586E-02 -1.49211901E-01  0.00000000E+00  0.00000000E+00  0.00000000E+00
  1.92750103E-01  2.33788906E-01  0.00000000E+00  4.20496709E-01 -1.07092856E-01
  1.92750103E-01  2.33788906E-01  0.00000000E+00 -4.20496709E-01 -1.07092856E-01
 -2.31198963E-02 -3.16752813E-02  0.00000000E+00  0.00000000E+00 -3.18002286E-01
 -8.24117521E-02  0.00000000E+00  0.00000000E+00 -1.28595653E-01 -1.21806367E-01
  3.48316358E-01 -3.42047178E-01  0.00000000E+00  0.00000000E+00  0.00000000E+00
  8.20203879E-02 -5.79835682E-02  0.00000000E+00  1.01926448E-01  4.37396883E-01
  8.20203879E-02 -5.79835682E-02  0.00000000E+00 -1.01926448E-01  4.37396883E-01
  9.54082369E-01  9.55032992E-02  0.00000000E+00  0.00000000E+00  1.64303963E-02
  6.27009944E-04  0.00000000E+00  0.00000000E+00 -7.79274185E-02 -9.36093100E-02
 -9.73197866E-02 -1.60182426E-01  0.00000000E+00  0.00000000E+00  0.00000000E+00
  2.42390647E-02  3.21815838E-02  0.00000000E+00  9.72385815E-02 -3.66049819E-02
  2.42390647E-02  3.21815838E-02  0.00000000E+00 -9.72385815E-02 -3.66049819E-02
 -5.35129293E-02  6.45379740E-02  0.00000000E+00  0.00000000E+00 -2.53083705E-01
  7.15517808E-02  0.00000000E+00  0.00000000E+00 -1.29536545E-01  8.95863811E-01
 -3.19158316E-01 -4.52968343E-01  0.00000000E+00  0.00000000E+00  0.00000000E+00
 -2.15749767E-01  6.90086169E-02  0.00000000E+00  1.26239689E-01 -8.48392067E-03
 -2.15749767E-01  6.90086169E-02  0.00000000E+00 -1.26239689E-01 -8.48392067E-03
 -9.55107171E-02  3.63516462E-01  0.00000000E+00  0.00000000E+00  9.16466000E-01
 -1.90011709E-01  0.00000000E+00  0.00000000E+00 -7.61299909E-01  9.88119877E-02
  3.24736924E-01 -5.13016023E-01  0.00000000E+00  0.00000000E+00  0.00000000E+00
  1.83559610E-02 -1.52352046E-01  0.00000000E+00 -2.81148361E-01 -6.02787461E-02
  1.83559610E-02 -1.52352046E-01  0.00000000E+00  2.81148361E-01 -6.02787461E-02
  1.27008169E-01 -8.47550025E-01  0.00000000E+00  0.00000000E+00  2.57632194E-01
  7.04811850E-02  0.00000000E+00  0.00000000E+00  8.49325238E-02 -1.36891278E-01
  1.23982665E-01 -2.57305080E-01  0.00000000E+00  0.00000000E+00  0.00000000E+00
 -4.65061891E-01  6.74028503E-01  0.00000000E+00 -4.43826507E-01  1.96398038E-01
 -4.65061891E-01  6.74028503E-01  0.00000000E+00  4.43826507E-01  1.96398038E-01
  1.30493099E-01 -4.18613166E-01  0.00000000E+00  0.00000000E+00 -3.02421580E-01
  1.44425437E-01  0.00000000E+00  0.00000000E+00  6.47779863E-01  2.82517504E-01
  9.30883234E-01 -6.21716830E-01  0.00000000E+00  0.00000000E+00  0.00000000E+00
  2.62329684E-01 -2.60193744E-01  0.00000000E+00 -2.68509265E-01 -6.08332684E-01
  2.62329684E-01 -2.60193744E-01  0.00000000E+00  2.68509265E-01 -6.08332684E-01
 -3.16921518E-01  1.15645614E+00  0.00000000E+00  0.00000000E+00 -3.94775826E-01
  4.91309933E-02  0.00000000E+00  0.00000000E+00  3.02531890E-01 -7.89333361E-01
  7.53485957E-02 -6.82907622E-01  0.00000000E+00  0.00000000E+00  0.00000000E+00
 -4.22644313E-01  4.44910281E-01  0.00000000E+00  6.49154907E-02 -3.44729729E-01
 -4.22644313E-01  4.44910281E-01  0.00000000E+00 -6.49154907E-02 -3.44729729E-01
 -1.96705339E-01  2.71932095E-01  0.00000000E+00  0.00000000E+00  3.85180971E-01
 -7.13389516E-02  0.00000000E+00  0.00000000E+00  1.11588264E+00 -9.70172485E-02
 -1.59765487E+00 -1.10181120E+00  0.00000000E+00  0.00000000E+00  0.00000000E+00
  1.26081871E+00  2.34047420E-01  0.00000000E+00 -7.26831105E-01  4.57771880E-01
  1.26081871E+00  2.34047420E-01  0.00000000E+00  7.26831105E-01  4.57771880E-01
 -4.10187514E-01 -9.88150110E-01  0.00000000E+00  0.00000000E+00  1.72223178E-01
  5.83991372E+00  0.00000000E+00  0.00000000E+00 -1.15857276E+00 -1.58770017E+00
 -1.19471248E+00 -1.23777128E+00  0.00000000E+00  0.00000000E+00  0.00000000E+00
 -3.27391567E-01 -1.28092866E+00  0.00000000E+00  1.34038097E-01  2.68402238E-02
 -3.27391567E-01 -1.28092866E+00  0.00000000E+00 -1.34038097E-01  2.68402238E-02
  0.00000000E+00  0.00000000E+00  0.00000000E+00  0.00000000E+00  0.00000000E+00
  0.00000000E+00  0.00000000E+00  0.00000000E+00  0.00000000E+00  0.00000000E+00
  0.00000000E+00  0.00000000E+00  5.92931872E-01  0.00000000E+00  0.00000000E+00
  0.00000000E+00  0.00000000E+00  4.14092531E-01  0.00000000E+00  0.00000000E+00
  0.00000000E+00  0.00000000E+00 -4.14092531E-01  0.00000000E+00  0.00000000E+00
  0.00000000E+00  0.00000000E+00  0.00000000E+00  0.00000000E+00  0.00000000E+00
  0.00000000E+00  0.00000000E+00  0.00000000E+00  0.00000000E+00  0.00000000E+00
  0.00000000E+00  0.00000000E+00 -9.48315630E-01  0.00000000E+00  0.00000000E+00
  0.00000000E+00  0.00000000E+00  6.78938305E-01  0.00000000E+00  0.00000000E+00
  0.00000000E+00  0.00000000E+00 -6.78938305E-01  0.00000000E+00  0.00000000E+00
  0.00000000E+00  0.00000000E+00  3.92543256E-01  0.00000000E+00  0.00000000E+00
  0.00000000E+00  4.52645764E-01  0.00000000E+00  0.00000000E+00  0.00000000E+00
  0.00000000E+00  0.00000000E+00  0.00000000E+00 -1.78813616E-01  0.00000000E+00
  0.00000000E+00  0.00000000E+00  2.89571859E-01  0.00000000E+00  0.00000000E+00
  0.00000000E+00  0.00000000E+00  2.89571859E-01  0.00000000E+00  0.00000000E+00
  0.00000000E+00  0.00000000E+00  3.77998068E-01  0.00000000E+00  0.00000000E+00
  0.00000000E+00  2.77291027E-01  0.00000000E+00  0.00000000E+00  0.00000000E+00
  0.00000000E+00  0.00000000E+00  0.00000000E+00  7.08623056E-01  0.00000000E+00
  0.00000000E+00  0.00000000E+00 -2.54140285E-01  0.00000000E+00  0.00000000E+00
  0.00000000E+00  0.00000000E+00 -2.54140285E-01  0.00000000E+00  0.00000000E+00
  0.00000000E+00  0.00000000E+00  7.61962155E-01  0.00000000E+00  0.00000000E+00
  0.00000000E+00 -2.78681906E-01  0.00000000E+00  0.00000000E+00  0.00000000E+00
  0.00000000E+00  0.00000000E+00  0.00000000E+00 -6.57146127E-01  0.00000000E+00
  0.00000000E+00  0.00000000E+00 -5.01543205E-01  0.00000000E+00  0.00000000E+00
  0.00000000E+00  0.00000000E+00 -5.01543205E-01  0.00000000E+00  0.00000000E+00
  0.00000000E+00  0.00000000E+00 -6.77183173E-01  0.00000000E+00  0.00000000E+00
  0.00000000E+00  1.08674532E+00  0.00000000E+00  0.00000000E+00  0.00000000E+00
  0.00000000E+00  0.00000000E+00  0.00000000E+00 -4.41905136E-01  0.00000000E+00
  0.00000000E+00  0.00000000E+00 -5.26821970E-01  0.00000000E+00  0.00000000E+00
  0.00000000E+00  0.00000000E+00 -5.26821970E-01  0.00000000E+00  0.00000000E+00
  0.00000000E+00  0.00000000E+00  0.00000000E+00  2.82970332E-01  0.00000000E+00
  0.00000000E+00  0.00000000E+00  3.70606484E-01  0.00000000E+00  0.00000000E+00
  0.00000000E+00  0.00000000E+00  0.00000000E+00  0.00000000E+00 -1.39492370E-01
  2.38755226E-01  1.48372678E-01  0.00000000E+00 -2.49020246E-02  1.06476928E-01
 -2.38755226E-01 -1.48372678E-01  0.00000000E+00 -2.49020246E-02 -1.06476928E-01
  0.00000000E+00  0.00000000E+00  0.00000000E+00  3.64800544E-02  0.00000000E+00
  0.00000000E+00  0.00000000E+00  2.35404056E-01  0.00000000E+00  0.00000000E+00
  0.00000000E+00  0.00000000E+00  0.00000000E+00  0.00000000E+00  6.29483171E-01
 -7.48580028E-02  8.84485578E-02  0.00000000E+00  3.68646215E-01  8.50039098E-02
  7.48580028E-02 -8.84485578E-02  0.00000000E+00  3.68646215E-01 -8.50039098E-02
  0.00000000E+00  0.00000000E+00  0.00000000E+00  4.33934517E-01  0.00000000E+00
  0.00000000E+00  0.00000000E+00 -5.68485170E-02  0.00000000E+00  0.00000000E+00
  0.00000000E+00  0.00000000E+00  0.00000000E+00  0.00000000E+00  1.76225591E-01
 -2.51931189E-01 -1.64777005E-01  0.00000000E+00 -2.51514309E-01  3.73461731E-01
  2.51931189E-01  1.64777005E-01  0.00000000E+00 -2.51514309E-01 -3.73461731E-01
  0.00000000E+00  0.00000000E+00  0.00000000E+00 -3.81498396E-01  0.00000000E+00
  0.00000000E+00  0.00000000E+00 -1.50961340E-01  0.00000000E+00  0.00000000E+00
  0.00000000E+00  0.00000000E+00  0.00000000E+00  0.00000000E+00 -4.63838231E-01
  2.80291270E-02 -4.93911863E-02  0.00000000E+00  3.52816720E-01  5.54308771E-01