Water cc-pVDZ (Independent s/p, Spherical 5D)                           
SP        RHF                                                         CC-pVDZ             
Number of atoms                            I                3
Info1-9                                    I   N=           9
          13          13           0           0           0         110
           1           1           2
Full Title                                 C   N=           4
Water cc-pVDZ (Independent s/p, Spherical 5D)   
Route                                      C   N=           3
#p HF/cc-pVDZ 5D pop=full gfprint   
Charge                                     I                0
Multiplicity                               I                1
Number of electrons                        I               10
Number of alpha electrons                  I                5
Number of beta electrons                   I                5
Number of basis functions                  I               24
Number of independent functions            I               24
Number of point charges in /Mol/           I                0
Number of translation vectors              I                0
Atomic numbers                             I   N=           3
           8           1           1
Nuclear charges                            R   N=           3
  8.00000000E+00  1.00000000E+00  1.00000000E+00
Current cartesian coordinates              R   N=           9
  1.35730589E-17  1.35730589E-17  2.21664874E-01  2.08559944E-16  1.43090062E+00
 -8.86659498E-01 -4.92379202E-16 -1.43090062E+00 -8.86659498E-01
Number of symbols in /Mol/                 I                0
Force Field                                I                0
Atom Types                                 C   N=           3
                                    
Int Atom Types                             I   N=           3
           0           0           0
MM charges                                 R   N=           3
  0.00000000E+00  0.00000000E+00  0.00000000E+00
Integer atomic weights                     I   N=           3
          16           1           1
Real atomic weights                        R   N=           3
  1.59949146E+01  1.00782504E+00  1.00782504E+00
Atom fragment info                         I   N=           3
           0           0           0
Atom residue num                           I   N=           3
           0           0           0
Nuclear spins                              I   N=           3
           0           1           1
Nuclear ZEff                               R   N=           3
 -5.60000000E+00 -1.00000000E+00 -1.00000000E+00
Nuclear ZNuc                               R   N=           3
  8.00000000E+00  1.00000000E+00  1.00000000E+00
Nuclear QMom                               R   N=           3
  0.00000000E+00  0.00000000E+00  0.00000000E+00
Nuclear GFac                               R   N=           3
  0.00000000E+00  2.79284600E+00  2.79284600E+00
MicOpt                                     I   N=           3
          -1          -1          -1
Number of residues                         I                0
Number of secondary structures             I                0
SymInf integers                            I   N=          26
           2           4           1           1           1          -1
          -1           1          -1           1           1           1
          -1           1           0           0           0           0
           0           0           0           0           0           0
           0           0
RotTr to input orientation                 R   N=          12
  1.00000000E+00 -1.83697020E-16 -6.12323400E-17  1.83697020E-16  1.00000000E+00
 -6.12323400E-17  6.12323400E-17  6.12323400E-17  1.00000000E+00  0.00000000E+00
  0.00000000E+00  0.00000000E+00
Number of contracted shells                I               12
Number of primitive shells                 I               30
Pure/Cartesian d shells                    I                0
Pure/Cartesian f shells                    I                0
Highest angular momentum                   I                2
Largest degree of contraction              I                7
Shell types                                I   N=          12
           0           0           0           1           1          -2
           0           0           1           0           0           1
Number of primitives per shell             I   N=          12
           7           7           1           3           1           1
           3           1           1           3           1           1
Shell to atom map                          I   N=          12
           1           1           1           1           1           1
           2           2           2           3           3           3
Primitive exponents                        R   N=          30
  1.17200000E+04  1.75900000E+03  4.00800000E+02  1.13700000E+02  3.70300000E+01
  1.32700000E+01  5.02500000E+00  1.17200000E+04  4.00800000E+02  1.13700000E+02
  3.70300000E+01  1.32700000E+01  5.02500000E+00  1.01300000E+00  3.02300000E-01
  1.77000000E+01  3.85400000E+00  1.04600000E+00  2.75300000E-01  1.18500000E+00
  1.30100000E+01  1.96200000E+00  4.44600000E-01  1.22000000E-01  7.27000000E-01
  1.30100000E+01  1.96200000E+00  4.44600000E-01  1.22000000E-01  7.27000000E-01
Contraction coefficients                   R   N=          30
  7.11864434E-04  5.48520199E-03  2.79099296E-02  1.05133208E-01  2.84002490E-01
  4.51673946E-01  2.73208126E-01  7.69030046E-06  3.13484579E-04 -2.96614853E-03
 -1.08753543E-02 -1.20753817E-01 -1.06275264E-01  1.09597548E+00  1.00000000E+00
  6.26791663E-02  3.33536566E-01  7.41239642E-01  1.00000000E+00  1.00000000E+00
  3.34987264E-02  2.34800801E-01  8.13682958E-01  1.00000000E+00  1.00000000E+00
  3.34987264E-02  2.34800801E-01  8.13682958E-01  1.00000000E+00  1.00000000E+00
Coordinates of each shell                  R   N=          36
  6.83057631E-34 -1.36611526E-33  2.21664874E-01  6.83057631E-34 -1.36611526E-33
  2.21664874E-01  6.83057631E-34 -1.36611526E-33  2.21664874E-01  6.83057631E-34
 -1.36611526E-33  2.21664874E-01  6.83057631E-34 -1.36611526E-33  2.21664874E-01
  6.83057631E-34 -1.36611526E-33  2.21664874E-01  0.00000000E+00  1.43090062E+00
 -8.86659498E-01  0.00000000E+00  1.43090062E+00 -8.86659498E-01  0.00000000E+00
  1.43090062E+00 -8.86659498E-01 -1.75234787E-16 -1.43090062E+00 -8.86659498E-01
 -1.75234787E-16 -1.43090062E+00 -8.86659498E-01 -1.75234787E-16 -1.43090062E+00
 -8.86659498E-01
Num ILSW                                   I              100
ILSW                                       I   N=         100
           0           0           0           0           2           0
           0           0           0           0           0          -1
           5           0           0           0           0           0
           0           0           0           0           0           0
           1           0           0           0           0           0
           0           0      100000           0          -1           0
           0           0           0           0           0           0
           0           0           0           1           0           0
           0 -2000000000           1           0           0           0
           0           0           4          52           0           0
           0           0           0           0           0           0
           0           0           0           3           0           1
           0           0           0           0           0           0
           0           0           0           0           0           0
           0           0           0           0           0           0
           0           0           0           0           0           0
           0           0           0           0
Num RLSW                                   I               52
RLSW                                       R   N=          52
  1.00000000E+00  1.00000000E+00  1.00000000E+00  1.00000000E+00  1.00000000E+00
  0.00000000E+00  0.00000000E+00  1.00000000E+00  0.00000000E+00  0.00000000E+00
  0.00000000E+00  0.00000000E+00  1.00000000E+00  0.00000000E+00  0.00000000E+00
  0.00000000E+00  0.00000000E+00  1.00000000E+00  0.00000000E+00  0.00000000E+00
  0.00000000E+00  0.00000000E+00  1.00000000E+00  0.00000000E+00  0.00000000E+00
  0.00000000E+00  0.00000000E+00  1.00000000E+00  0.00000000E+00  0.00000000E+00
  0.00000000E+00  0.00000000E+00  1.00000000E+00  0.00000000E+00  0.00000000E+00
  0.00000000E+00  0.00000000E+00  0.00000000E+00  1.00000000E+00  1.00000000E+00
  0.00000000E+00  1.00000000E+00  0.00000000E+00  0.00000000E+00  0.00000000E+00
  0.00000000E+00  0.00000000E+00  0.00000000E+00  0.00000000E+00  0.00000000E+00
  0.00000000E+00  0.00000000E+00
MxBond                                     I                2
NBond                                      I   N=           3
           2           1           1
IBond                                      I   N=           6
           2           3           1           0           1           0
RBond                                      R   N=           6
  1.00000000E+00  1.00000000E+00  1.00000000E+00  0.00000000E+00  1.00000000E+00
  0.00000000E+00
Virial Ratio                               R      2.000526871363060E+00
SCF Energy                                 R     -7.602677205339528E+01
Total Energy                               R     -7.602677205339528E+01
RMS Density                                R      3.514631231971740E-09
Job Status                                 I                1
Nuclear derivative order                   I                0
External E-field                           R   N=          35
  0.00000000E+00  0.00000000E+00  0.00000000E+00  0.00000000E+00  0.00000000E+00
  0.00000000E+00  0.00000000E+00  0.00000000E+00  0.00000000E+00  0.00000000E+00
  0.00000000E+00  0.00000000E+00  0.00000000E+00  0.00000000E+00  0.00000000E+00
  0.00000000E+00  0.00000000E+00  0.00000000E+00  0.00000000E+00  0.00000000E+00
  0.00000000E+00  0.00000000E+00  0.00000000E+00  0.00000000E+00  0.00000000E+00
  0.00000000E+00  0.00000000E+00  0.00000000E+00  0.00000000E+00  0.00000000E+00
  0.00000000E+00  0.00000000E+00  0.00000000E+00  0.00000000E+00  0.00000000E+00
IOpCl                                      I                0
IROHF                                      I                0
Alpha Orbital Energies                     R   N=          24
 -2.05505380E+01 -1.33644782E+00 -6.98951264E-01 -5.66543444E-01 -4.93120568E-01
  1.85474156E-01  2.56179455E-01  7.88824491E-01  8.53985676E-01  1.16356985E+00
  1.20037198E+00  1.25336715E+00  1.44437655E+00  1.47623303E+00  1.67439344E+00
  1.86733904E+00  1.93452848E+00  2.45157730E+00  2.48914498E+00  3.28538021E+00
  3.33828201E+00  3.51001050E+00  3.86507713E+00  4.14710978E+00
Alpha MO coefficients                      R   N=         576
  9.97096514E-01  1.52817642E-02 -2.66875492E-03  0.00000000E+00  0.00000000E+00
 -1.76174612E-03  0.00000000E+00  0.00000000E+00  4.85394909E-04  1.09887481E-05
  0.00000000E+00  0.00000000E+00 -1.37216001E-04  0.00000000E+00 -2.38705799E-04
  4.21409139E-04  0.00000000E+00  5.70133478E-04 -4.81216049E-04 -2.38705799E-04
  4.21409139E-04  0.00000000E+00 -5.70133478E-04 -4.81216049E-04 -2.08602682E-01
  4.42579284E-01  3.76043527E-01  0.00000000E+00  0.00000000E+00 -7.87627889E-02
  0.00000000E+00  0.00000000E+00  1.30263021E-02  1.24481151E-03  0.00000000E+00
  0.00000000E+00 -3.00780942E-03  0.00000000E+00  1.93409436E-01  1.00951926E-02
  0.00000000E+00 -3.72923884E-02  2.04804740E-02  1.93409436E-01  1.00951926E-02
  0.00000000E+00  3.72923884E-02  2.04804740E-02  0.00000000E+00  0.00000000E+00
  0.00000000E+00  0.00000000E+00  4.89925589E-01  0.00000000E+00  0.00000000E+00
  2.22068342E-01  0.00000000E+00  0.00000000E+00  0.00000000E+00 -2.67956766E-02
  0.00000000E+00  0.00000000E+00  3.27870497E-01  8.98922813E-02  0.00000000E+00
 -2.33101376E-02  3.26654560E-02 -3.27870497E-01 -8.98922813E-02  0.00000000E+00
 -2.33101376E-02 -3.26654560E-02 -7.02154556E-02  1.50283041E-01  3.49735612E-01
  0.00000000E+00  0.00000000E+00  5.45401432E-01  0.00000000E+00  0.00000000E+00
  3.65302439E-01 -1.78718990E-02  0.00000000E+00  0.00000000E+00  4.59383898E-03
  0.00000000E+00 -2.06440347E-01 -4.04165842E-02  0.00000000E+00  3.17630517E-02
  7.51717868E-03 -2.06440347E-01 -4.04165842E-02  0.00000000E+00 -3.17630517E-02
  7.51717868E-03  0.00000000E+00  0.00000000E+00  0.00000000E+00  6.31190832E-01
  0.00000000E+00  0.00000000E+00  4.95669436E-01  0.00000000E+00  0.00000000E+00
  0.00000000E+00 -1.82018092E-02  0.00000000E+00  0.00000000E+00  0.00000000E+00
  0.00000000E+00  0.00000000E+00  3.10614720E-02  0.00000000E+00  0.00000000E+00
  0.00000000E+00  0.00000000E+00  3.10614720E-02  0.00000000E+00  0.00000000E+00
 -8.47334305E-02  7.18235834E-02  1.00221056E+00  0.00000000E+00  0.00000000E+00
 -1.90704892E-01  0.00000000E+00  0.00000000E+00 -3.37235127E-01  7.53595967E-03
  0.00000000E+00  0.00000000E+00 -9.96005314E-03  0.00000000E+00 -5.90151827E-02
 -8.29075197E-01  0.00000000E+00  1.75170792E-02 -1.63113162E-02 -5.90151827E-02
 -8.29075197E-01  0.00000000E+00 -1.75170792E-02 -1.63113162E-02  0.00000000E+00
  0.00000000E+00  0.00000000E+00  0.00000000E+00 -2.83322622E-01  0.00000000E+00
  0.00000000E+00 -6.70950828E-01  0.00000000E+00  0.00000000E+00  0.00000000E+00
  2.12255434E-02  0.00000000E+00  0.00000000E+00  2.60754775E-02  1.44365907E+00
  0.00000000E+00 -2.08004591E-02  1.71195475E-02 -2.60754775E-02 -1.44365907E+00
  0.00000000E+00 -2.08004591E-02 -1.71195475E-02  0.00000000E+00  0.00000000E+00
  0.00000000E+00  0.00000000E+00 -2.67993232E-01  0.00000000E+00  0.00000000E+00
 -4.60428184E-01  0.00000000E+00  0.00000000E+00  0.00000000E+00 -1.11686007E-01
  0.00000000E+00  0.00000000E+00  9.44298948E-01 -6.86932313E-01  0.00000000E+00
  7.38706421E-02 -1.52710801E-01 -9.44298948E-01  6.86932313E-01  0.00000000E+00
  7.38706421E-02  1.52710801E-01  5.07902354E-02 -2.56804179E-01  3.20218199E-01
  0.00000000E+00  0.00000000E+00  3.29434202E-01  0.00000000E+00  0.00000000E+00
 -9.71740788E-03  9.85559020E-04  0.00000000E+00  0.00000000E+00 -1.06977301E-01
  0.00000000E+00  7.87705238E-01 -5.48047440E-01  0.00000000E+00  2.95764980E-01
 -5.93041794E-02  7.87705238E-01 -5.48047440E-01  0.00000000E+00 -2.95764980E-01
 -5.93041794E-02  4.87877004E-02 -1.14911323E-01 -7.47840259E-01  0.00000000E+00
  0.00000000E+00 -7.54419299E-01  0.00000000E+00  0.00000000E+00  1.27865058E+00
 -1.28214984E-02  0.00000000E+00  0.00000000E+00 -6.75678735E-03  0.00000000E+00
  5.46398942E-01  1.12940154E-01  0.00000000E+00 -8.41279819E-02  2.51100761E-01
  5.46398942E-01  1.12940154E-01  0.00000000E+00  8.41279819E-02  2.51100761E-01
  0.00000000E+00  0.00000000E+00  0.00000000E+00 -9.67826707E-01  0.00000000E+00
  0.00000000E+00  1.02482531E+00  0.00000000E+00  0.00000000E+00  0.00000000E+00
  3.48955194E-03  0.00000000E+00  0.00000000E+00  0.00000000E+00  0.00000000E+00
  0.00000000E+00  8.58942160E-03  0.00000000E+00  0.00000000E+00  0.00000000E+00
  0.00000000E+00  8.58942160E-03  0.00000000E+00  0.00000000E+00  0.00000000E+00
  0.00000000E+00  0.00000000E+00  0.00000000E+00 -7.34356706E-01  0.00000000E+00
  0.00000000E+00  1.76367158E+00  0.00000000E+00  0.00000000E+00  0.00000000E+00
 -4.44910098E-02  0.00000000E+00  0.00000000E+00 -3.79057363E-01 -8.24838521E-01
  0.00000000E+00  3.02640992E-01 -1.86653884E-01  3.79057363E-01  8.24838521E-01
  0.00000000E+00  3.02640992E-01  1.86653884E-01  3.81746166E-02 -5.31269463E-01
  5.05020583E-01  0.00000000E+00  0.00000000E+00 -1.32618514E-01  0.00000000E+00
  0.00000000E+00  7.40412413E-01  1.17316430E-01  0.00000000E+00  0.00000000E+00
  4.82297303E-03  0.00000000E+00  3.33727746E-01 -2.09216931E-01  0.00000000E+00
 -3.29886130E-01 -5.45130317E-01  3.33727746E-01 -2.09216931E-01  0.00000000E+00
  3.29886130E-01 -5.45130317E-01  0.00000000E+00  0.00000000E+00  0.00000000E+00
  0.00000000E+00  0.00000000E+00  0.00000000E+00  0.00000000E+00  0.00000000E+00
  0.00000000E+00  0.00000000E+00  0.00000000E+00  0.00000000E+00  0.00000000E+00
  1.31341670E-01  0.00000000E+00  0.00000000E+00  6.85592159E-01  0.00000000E+00
  0.00000000E+00  0.00000000E+00  0.00000000E+00 -6.85592159E-01  0.00000000E+00
  0.00000000E+00  0.00000000E+00  0.00000000E+00  0.00000000E+00 -1.93747198E-02
  0.00000000E+00  0.00000000E+00 -6.33905130E-01  0.00000000E+00  0.00000000E+00
  0.00000000E+00 -1.60806965E-01  0.00000000E+00  0.00000000E+00  0.00000000E+00
  0.00000000E+00  0.00000000E+00  7.66970973E-01  0.00000000E+00  0.00000000E+00
  0.00000000E+00  0.00000000E+00  7.66970973E-01  0.00000000E+00  0.00000000E+00
 -1.14902771E-03 -1.60289477E+00  3.03403316E+00  0.00000000E+00  0.00000000E+00
 -1.09351172E-01  0.00000000E+00  0.00000000E+00 -9.67830666E-01 -1.14124562E-01
  0.00000000E+00  0.00000000E+00  1.08179835E-01  0.00000000E+00 -8.28129985E-01
 -3.87925675E-01  0.00000000E+00  3.72827281E-01  2.29197756E-02 -8.28129985E-01
 -3.87925675E-01  0.00000000E+00 -3.72827281E-01  2.29197756E-02  0.00000000E+00
  0.00000000E+00  0.00000000E+00  0.00000000E+00 -1.02711786E-02  0.00000000E+00
  0.00000000E+00  9.01072582E-01  0.00000000E+00  0.00000000E+00  0.00000000E+00
  2.93647072E-02  0.00000000E+00  0.00000000E+00 -3.87407994E-01 -9.14721919E-02
  0.00000000E+00 -4.71588628E-01 -6.93242698E-01  3.87407994E-01  9.14721919E-02
  0.00000000E+00 -4.71588628E-01  6.93242698E-01  0.00000000E+00  0.00000000E+00
  0.00000000E+00  0.00000000E+00  8.38683256E-01  0.00000000E+00  0.00000000E+00
  1.52313611E-01  0.00000000E+00  0.00000000E+00  0.00000000E+00  1.38361345E-01
  0.00000000E+00  0.00000000E+00 -2.94701319E-01 -3.30063551E-01  0.00000000E+00
  7.24302348E-01 -5.54792026E-01  2.94701319E-01  3.30063551E-01  0.00000000E+00
  7.24302348E-01  5.54792026E-01 -5.26377704E-02  7.31041956E-01  7.93490050E-01
  0.00000000E+00  0.00000000E+00 -6.69302266E-01  0.00000000E+00  0.00000000E+00
 -1.80021023E-01 -5.30462154E-02  0.00000000E+00  0.00000000E+00  2.17247213E-01
  0.00000000E+00 -4.78388048E-01 -1.59006258E-01  0.00000000E+00  7.44372399E-01
 -5.37065429E-01 -4.78388048E-01 -1.59006258E-01  0.00000000E+00 -7.44372399E-01
 -5.37065429E-01  0.00000000E+00  0.00000000E+00  0.00000000E+00  1.16726545E-02
  0.00000000E+00  0.00000000E+00 -3.11440124E-01  0.00000000E+00  0.00000000E+00
  0.00000000E+00  1.04271696E+00  0.00000000E+00  0.00000000E+00  0.00000000E+00
  0.00000000E+00  0.00000000E+00  3.98146402E-01  0.00000000E+00  0.00000000E+00
  0.00000000E+00  0.00000000E+00  3.98146402E-01  0.00000000E+00  0.00000000E+00
  0.00000000E+00  0.00000000E+00  0.00000000E+00  0.00000000E+00  0.00000000E+00
  0.00000000E+00  0.00000000E+00  0.00000000E+00  0.00000000E+00  0.00000000E+00
  0.00000000E+00  0.00000000E+00  0.00000000E+00  1.06605172E+00  0.00000000E+00
  0.00000000E+00 -3.71196331E-01  0.00000000E+00  0.00000000E+00  0.00000000E+00
  0.00000000E+00  3.71196331E-01  0.00000000E+00  0.00000000E+00 -1.41494045E-02
 -1.55276570E-01  5.57982563E-01  0.00000000E+00  0.00000000E+00 -1.89817001E-02
  0.00000000E+00  0.00000000E+00 -5.37632194E-01  1.08434961E+00  0.00000000E+00
  0.00000000E+00  1.76193054E-01  0.00000000E+00 -3.06149611E-01 -3.78060275E-02
  0.00000000E+00  3.52386613E-01  3.15033844E-01 -3.06149611E-01 -3.78060275E-02
  0.00000000E+00 -3.52386613E-01  3.15033844E-01 -6.27722894E-02 -1.78900068E-01
  2.26788421E+00  0.00000000E+00  0.00000000E+00 -4.04387090E-01  0.00000000E+00
  0.00000000E+00 -9.21854622E-01  1.35647700E-01  0.00000000E+00  0.00000000E+00
 -1.15956536E+00  0.00000000E+00 -1.23738436E+00 -1.91744273E-01  0.00000000E+00
  6.20478900E-01 -4.93124852E-01 -1.23738436E+00 -1.91744273E-01  0.00000000E+00
 -6.20478900E-01 -4.93124852E-01  0.00000000E+00  0.00000000E+00  0.00000000E+00
  0.00000000E+00 -4.68169837E-01  0.00000000E+00  0.00000000E+00 -1.14386692E+00
  0.00000000E+00  0.00000000E+00  0.00000000E+00  1.32540652E+00  0.00000000E+00
  0.00000000E+00  1.08540902E+00  2.88455000E-01  0.00000000E+00 -6.05701046E-01
  4.93779378E-01 -1.08540902E+00 -2.88455000E-01  0.00000000E+00 -6.05701046E-01
 -4.93779378E-01
Orthonormal basis                          R   N=         576
  5.30313869E-02  1.88091935E-01  2.34630086E-01  0.00000000E+00  0.00000000E+00
 -6.82812615E-02  0.00000000E+00  0.00000000E+00 -1.03694111E-01  9.04395268E-03
  0.00000000E+00  0.00000000E+00 -1.95948714E-02  0.00000000E+00  1.64885375E-01
  1.97600236E-01  0.00000000E+00 -9.86573668E-02  3.42465546E-02  1.64885375E-01
  1.97600236E-01  0.00000000E+00  9.86573668E-02  3.42465546E-02  9.30793229E-02
  2.01270622E-01  1.81189128E-01  0.00000000E+00  0.00000000E+00  2.93640762E-01
  0.00000000E+00  0.00000000E+00  3.85500260E-01 -1.60652855E-01  0.00000000E+00
  0.00000000E+00 -8.84815900E-02  0.00000000E+00 -6.26930558E-02  2.96827996E-03
  0.00000000E+00  1.20149787E-01  2.57633022E-01 -6.26930558E-02  2.96827996E-03
  0.00000000E+00 -1.20149787E-01  2.57633022E-01 -1.67844735E-01 -2.38357861E-01
 -3.69246765E-02  0.00000000E+00  0.00000000E+00  1.96184852E-01  0.00000000E+00
  0.00000000E+00 -3.58848840E-02 -1.30978599E-01  0.00000000E+00  0.00000000E+00
 -3.20507973E-02  0.00000000E+00  1.73490210E-01  2.50540573E-01  0.00000000E+00
  3.77919961E-01 -1.31801159E-01  1.73490210E-01  2.50540573E-01  0.00000000E+00
 -3.77919961E-01 -1.31801159E-01  7.98072736E-02  9.35576716E-02  1.24294018E-01
  0.00000000E+00  0.00000000E+00  3.83487607E-01  0.00000000E+00  0.00000000E+00
  2.36364674E-01  4.50589617E-01  0.00000000E+00  0.00000000E+00  4.01969493E-01
  0.00000000E+00 -7.09889047E-02  8.57720046E-02  0.00000000E+00 -5.88063095E-02
 -2.71373312E-01 -7.09889047E-02  8.57720046E-02  0.00000000E+00  5.88063095E-02
 -2.71373312E-01  1.86842573E-01  5.20283261E-02  2.55906598E-02  0.00000000E+00
  0.00000000E+00 -1.32612698E-01  0.00000000E+00  0.00000000E+00 -9.58099328E-02
 -5.80661676E-01  0.00000000E+00  0.00000000E+00  7.48526386E-01  0.00000000E+00
 -7.24562301E-02  1.83631871E-02  0.00000000E+00  3.96093187E-02 -4.63979366E-03
 -7.24562301E-02  1.83631871E-02  0.00000000E+00 -3.96093187E-02 -4.63979366E-03
  9.72029741E-01 -9.76166459E-02 -1.15043568E-01  0.00000000E+00  0.00000000E+00
  2.92823843E-02  0.00000000E+00  0.00000000E+00 -1.17284213E-01  4.77364450E-02
  0.00000000E+00  0.00000000E+00 -2.07835968E-01  0.00000000E+00  5.19439327E-02
 -1.90533253E-02  0.00000000E+00  1.22741085E-01 -9.11342847E-02  5.19439327E-02
 -1.90533253E-02  0.00000000E+00 -1.22741085E-01 -9.11342847E-02 -6.86515784E-02
  1.54312802E-01 -2.12144288E-02  0.00000000E+00  0.00000000E+00  7.17403173E-01
  0.00000000E+00  0.00000000E+00 -2.69918008E-01 -6.47872055E-01  0.00000000E+00
  0.00000000E+00 -3.71956342E-01  0.00000000E+00 -2.94786142E-02 -8.87974451E-02
  0.00000000E+00 -3.46967932E-01 -3.57517669E-01 -2.94786142E-02 -8.87974451E-02
  0.00000000E+00  3.46967932E-01 -3.57517669E-01  1.09289571E-01 -5.96825142E-01
  5.53728337E-02  0.00000000E+00  0.00000000E+00 -4.21650822E-01  0.00000000E+00
  0.00000000E+00  7.08175138E-01 -3.09948834E-01  0.00000000E+00  0.00000000E+00
 -2.80941431E-01  0.00000000E+00 -3.86140761E-01  5.34459959E-01  0.00000000E+00
 -3.26534839E-01 -1.88340933E-01 -3.86140761E-01  5.34459959E-01  0.00000000E+00
  3.26534839E-01 -1.88340933E-01  6.98633249E-02 -6.99050369E-01 -2.59883598E-01
  0.00000000E+00  0.00000000E+00  7.24628343E-01  0.00000000E+00  0.00000000E+00
 -7.56611407E-01  2.71707736E-01  0.00000000E+00  0.00000000E+00  2.42622248E-01
  0.00000000E+00 -2.97868185E-01  4.02434275E-01  0.00000000E+00 -2.76126636E-01
  6.82969048E-01 -2.97868185E-01  4.02434275E-01  0.00000000E+00  2.76126636E-01
  6.82969048E-01 -8.68428813E-02  1.30953924E+00 -6.80142370E-01  0.00000000E+00
  0.00000000E+00 -2.39790597E-01  0.00000000E+00  0.00000000E+00 -5.30051650E-01
  1.28053942E-01  0.00000000E+00  0.00000000E+00 -2.97859767E-01  0.00000000E+00
 -8.78329208E-01  5.49476018E-01  0.00000000E+00  3.97209365E-01 -1.39988172E-01
 -8.78329208E-01  5.49476018E-01  0.00000000E+00 -3.97209365E-01 -1.39988172E-01
 -9.11448531E-02 -1.00388984E+00  4.10151216E+00  0.00000000E+00  0.00000000E+00
 -2.98644732E-01  0.00000000E+00  0.00000000E+00 -1.69449884E+00  1.81122301E-01
  0.00000000E+00  0.00000000E+00 -5.54079997E-01  0.00000000E+00 -1.60282562E+00
 -6.26623463E-01  0.00000000E+00  8.71910995E-01 -4.23835719E-01 -1.60282562E+00
 -6.26623463E-01  0.00000000E+00 -8.71910995E-01 -4.23835719E-01  0.00000000E+00
  0.00000000E+00  0.00000000E+00  0.00000000E+00  0.00000000E+00  0.00000000E+00
  0.00000000E+00  0.00000000E+00  0.00000000E+00  0.00000000E+00  0.00000000E+00
  0.00000000E+00  0.00000000E+00  6.34418523E-01  0.00000000E+00  0.00000000E+00
  4.17617015E-01  0.00000000E+00  0.00000000E+00  0.00000000E+00  0.00000000E+00
 -4.17617015E-01  0.00000000E+00  0.00000000E+00  0.00000000E+00  0.00000000E+00
  0.00000000E+00  0.00000000E+00  0.00000000E+00  0.00000000E+00  0.00000000E+00
  0.00000000E+00  0.00000000E+00  0.00000000E+00  0.00000000E+00  0.00000000E+00
  0.00000000E+00 -8.66735282E-01  0.00000000E+00  0.00000000E+00  6.58345922E-01
  0.00000000E+00  0.00000000E+00  0.00000000E+00  0.00000000E+00 -6.58345922E-01
  0.00000000E+00  0.00000000E+00  0.00000000E+00  0.00000000E+00  0.00000000E+00
  3.58133231E-01  0.00000000E+00  0.00000000E+00  4.39239826E-01  0.00000000E+00
  0.00000000E+00  0.00000000E+00 -1.23657434E-01  0.00000000E+00  0.00000000E+00
  0.00000000E+00  0.00000000E+00  0.00000000E+00  2.98847064E-01  0.00000000E+00
  0.00000000E+00  0.00000000E+00  0.00000000E+00  2.98847064E-01  0.00000000E+00
  0.00000000E+00  0.00000000E+00  0.00000000E+00  0.00000000E+00  3.44299933E-01
  0.00000000E+00  0.00000000E+00  2.15738830E-01  0.00000000E+00  0.00000000E+00
  0.00000000E+00  8.21118330E-01  0.00000000E+00  0.00000000E+00  0.00000000E+00
  0.00000000E+00  0.00000000E+00 -1.94964184E-01  0.00000000E+00  0.00000000E+00
  0.00000000E+00  0.00000000E+00 -1.94964184E-01  0.00000000E+00  0.00000000E+00
  0.00000000E+00  0.00000000E+00  0.00000000E+00  8.77476821E-01  0.00000000E+00
  0.00000000E+00 -2.40399133E-01  0.00000000E+00  0.00000000E+00  0.00000000E+00
 -5.21820158E-01  0.00000000E+00  0.00000000E+00  0.00000000E+00  0.00000000E+00
  0.00000000E+00 -4.57069369E-01  0.00000000E+00  0.00000000E+00  0.00000000E+00
  0.00000000E+00 -4.57069369E-01  0.00000000E+00  0.00000000E+00  0.00000000E+00
  0.00000000E+00  0.00000000E+00 -5.64654411E-01  0.00000000E+00  0.00000000E+00
  1.22373166E+00  0.00000000E+00  0.00000000E+00  0.00000000E+00 -3.89407586E-01
  0.00000000E+00  0.00000000E+00  0.00000000E+00  0.00000000E+00  0.00000000E+00
 -6.41537696E-01  0.00000000E+00  0.00000000E+00  0.00000000E+00  0.00000000E+00
 -6.41537696E-01  0.00000000E+00  0.00000000E+00  0.00000000E+00  0.00000000E+00
  0.00000000E+00  0.00000000E+00  3.02026745E-01  0.00000000E+00  0.00000000E+00
  4.01444857E-01  0.00000000E+00  0.00000000E+00  0.00000000E+00 -7.32964504E-02
  0.00000000E+00  0.00000000E+00  2.30054896E-01  1.25713447E-01  0.00000000E+00
  1.65168389E-02  1.36463833E-01 -2.30054896E-01 -1.25713447E-01  0.00000000E+00
  1.65168389E-02 -1.36463833E-01  0.00000000E+00  0.00000000E+00  0.00000000E+00
  0.00000000E+00 -3.86197754E-01  0.00000000E+00  0.00000000E+00  1.48076810E-01
  0.00000000E+00  0.00000000E+00  0.00000000E+00  2.36860644E-01  0.00000000E+00
  0.00000000E+00  2.03776582E-01  1.82608676E-01  0.00000000E+00  3.74663160E-01
 -2.83922899E-01 -2.03776582E-01 -1.82608676E-01  0.00000000E+00  3.74663160E-01
  2.83922899E-01  0.00000000E+00  0.00000000E+00  0.00000000E+00  0.00000000E+00
  1.83394729E-01  0.00000000E+00  0.00000000E+00  7.81129608E-02  0.00000000E+00
  0.00000000E+00  0.00000000E+00  7.58860677E-01  0.00000000E+00  0.00000000E+00
 -2.04221226E-01 -3.45003569E-02  0.00000000E+00  1.51741590E-01  2.43652672E-01
  2.04221226E-01  3.45003569E-02  0.00000000E+00  1.51741590E-01 -2.43652672E-01
  0.00000000E+00  0.00000000E+00  0.00000000E+00  0.00000000E+00 -4.83250651E-01
  0.00000000E+00  0.00000000E+00 -4.11233320E-02  0.00000000E+00  0.00000000E+00
  0.00000000E+00 -4.42605931E-01  0.00000000E+00  0.00000000E+00 -7.54237669E-02
 -1.76163389E-02  0.00000000E+00  3.83110937E-01  5.73407606E-01  7.54237669E-02
  1.76163389E-02  0.00000000E+00  3.83110937E-01 -5.73407606E-01  0.00000000E+00
  0.00000000E+00  0.00000000E+00  0.00000000E+00  1.06044131E+00  0.00000000E+00
  0.00000000E+00 -8.11581579E-01  0.00000000E+00  0.00000000E+00  0.00000000E+00
 -3.05117007E-01  0.00000000E+00  0.00000000E+00  1.18203836E-01 -1.97438925E-01
  0.00000000E+00  7.10233056E-01 -1.65052074E-01 -1.18203836E-01  1.97438925E-01
  0.00000000E+00  7.10233056E-01  1.65052074E-01  0.00000000E+00  0.00000000E+00
  0.00000000E+00  0.00000000E+00  4.09871545E-01  0.00000000E+00  0.00000000E+00
  4.37533136E-02  0.00000000E+00  0.00000000E+00  0.00000000E+00 -4.62374984E-01
  0.00000000E+00  0.00000000E+00 -1.01320209E+00  1.33190791E+00  0.00000000E+00
  1.17849808E-01 -1.75260487E-01  1.01320209E+00 -1.33190791E+00  0.00000000E+00
  1.17849808E-01  1.75260487E-01  0.00000000E+00  0.00000000E+00  0.00000000E+00
  0.00000000E+00  2.32406743E-01  0.00000000E+00  0.00000000E+00  2.26144361E+00
  0.00000000E+00  0.00000000E+00  0.00000000E+00 -8.07588040E-01  0.00000000E+00
  0.00000000E+00 -1.17312178E+00 -1.25752572E+00  0.00000000E+00  6.18985933E-01
 -7.39163144E-01  1.17312178E+00  1.25752572E+00  0.00000000E+00  6.18985933E-01
  7.39163144E-01
Total SCF Density                          R   N=         300
  2.08529350E+00 -1.75276048E-01  4.37389894E-01 -2.11323080E-01  4.37895245E-01
  5.27461709E-01  0.00000000E+00  0.00000000E+00  0.00000000E+00  7.96803733E-01