Water cc-pVTZ (Cartesian 6D, 10F)                                       
SP        RHF                                                         CC-pVTZ             
Number of atoms                            I                3
Info1-9                                    I   N=           9
          13          13           0           0           0         110
           1           1           2
Full Title                                 C   N=           3
Water cc-pVTZ (Cartesian 6D, 10F)   
Route                                      C   N=           4
#p HF/cc-pVTZ 6D 10F pop=full gfprint           
Charge                                     I                0
Multiplicity                               I                1
Number of electrons                        I               10
Number of alpha electrons                  I                5
Number of beta electrons                   I                5
Number of basis functions                  I               65
Number of independent functions            I               65
Number of point charges in /Mol/           I                0
Number of translation vectors              I                0
Atomic numbers                             I   N=           3
           8           1           1
Nuclear charges                            R   N=           3
  8.00000000E+00  1.00000000E+00  1.00000000E+00
Current cartesian coordinates              R   N=           9
  1.35730589E-17  1.35730589E-17  2.21664874E-01  2.08559944E-16  1.43090062E+00
 -8.86659498E-01 -4.92379202E-16 -1.43090062E+00 -8.86659498E-01
Number of symbols in /Mol/                 I                0
Force Field                                I                0
Atom Types                                 C   N=           3
                                    
Int Atom Types                             I   N=           3
           0           0           0
MM charges                                 R   N=           3
  0.00000000E+00  0.00000000E+00  0.00000000E+00
Integer atomic weights                     I   N=           3
          16           1           1
Real atomic weights                        R   N=           3
  1.59949146E+01  1.00782504E+00  1.00782504E+00
Atom fragment info                         I   N=           3
           0           0           0
Atom residue num                           I   N=           3
           0           0           0
Nuclear spins                              I   N=           3
           0           1           1
Nuclear ZEff                               R   N=           3
 -5.60000000E+00 -1.00000000E+00 -1.00000000E+00
Nuclear ZNuc                               R   N=           3
  8.00000000E+00  1.00000000E+00  1.00000000E+00
Nuclear QMom                               R   N=           3
  0.00000000E+00  0.00000000E+00  0.00000000E+00
Nuclear GFac                               R   N=           3
  0.00000000E+00  2.79284600E+00  2.79284600E+00
MicOpt                                     I   N=           3
          -1          -1          -1
Number of residues                         I                0
Number of secondary structures             I                0
SymInf integers                            I   N=          26
           2           4           1           1           1          -1
          -1           1          -1           1           1           1
          -1           1           0           0           0           0
           0           0           0           0           0           0
           0           0
RotTr to input orientation                 R   N=          12
  1.00000000E+00 -1.83697020E-16 -6.12323400E-17  1.83697020E-16  1.00000000E+00
 -6.12323400E-17  6.12323400E-17  6.12323400E-17  1.00000000E+00  0.00000000E+00
  0.00000000E+00  0.00000000E+00
Number of contracted shells                I               22
Number of primitive shells                 I               39
Pure/Cartesian d shells                    I                1
Pure/Cartesian f shells                    I                1
Highest angular momentum                   I                3
Largest degree of contraction              I                7
Shell types                                I   N=          22
           0           0           0           0           1           1
           1           2           2           3           0           0
           0           1           1           2           0           0
           0           1           1           2
Number of primitives per shell             I   N=          22
           7           6           1           1           3           1
           1           1           1           1           3           1
           1           1           1           1           3           1
           1           1           1           1
Shell to atom map                          I   N=          22
           1           1           1           1           1           1
           1           1           1           1           2           2
           2           2           2           2           3           3
           3           3           3           3
Primitive exponents                        R   N=          39
  1.53300000E+04  2.29900000E+03  5.22400000E+02  1.47300000E+02  4.75500000E+01
  1.67600000E+01  6.20700000E+00  5.22400000E+02  1.47300000E+02  4.75500000E+01
  1.67600000E+01  6.20700000E+00  6.88200000E-01  1.75200000E+00  2.38400000E-01
  3.44600000E+01  7.74900000E+00  2.28000000E+00  7.15600000E-01  2.14000000E-01
  2.31400000E+00  6.45000000E-01  1.42800000E+00  3.38700000E+01  5.09500000E+00
  1.15900000E+00  3.25800000E-01  1.02700000E-01  1.40700000E+00  3.88000000E-01
  1.05700000E+00  3.38700000E+01  5.09500000E+00  1.15900000E+00  3.25800000E-01
  1.02700000E-01  1.40700000E+00  3.88000000E-01  1.05700000E+00
Contraction coefficients                   R   N=          39
  5.19808943E-04  4.02025621E-03  2.07128267E-02  8.10105536E-02  2.35962985E-01
  4.42653446E-01  3.57064423E-01 -4.42115008E-05 -1.22591041E-03 -1.05517725E-02
 -6.74452633E-02 -1.71198607E-01  1.07329856E+00  1.00000000E+00  1.00000000E+00
  4.11634896E-02  2.57762836E-01  8.02419274E-01  1.00000000E+00  1.00000000E+00
  1.00000000E+00  1.00000000E+00  1.00000000E+00  2.54948632E-02  1.90362766E-01
  8.52162022E-01  1.00000000E+00  1.00000000E+00  1.00000000E+00  1.00000000E+00
  1.00000000E+00  2.54948632E-02  1.90362766E-01  8.52162022E-01  1.00000000E+00
  1.00000000E+00  1.00000000E+00  1.00000000E+00  1.00000000E+00
Coordinates of each shell                  R   N=          66
  6.83057631E-34 -1.36611526E-33  2.21664874E-01  6.83057631E-34 -1.36611526E-33
  2.21664874E-01  6.83057631E-34 -1.36611526E-33  2.21664874E-01  6.83057631E-34
 -1.36611526E-33  2.21664874E-01  6.83057631E-34 -1.36611526E-33  2.21664874E-01
  6.83057631E-34 -1.36611526E-33  2.21664874E-01  6.83057631E-34 -1.36611526E-33
  2.21664874E-01  6.83057631E-34 -1.36611526E-33  2.21664874E-01  6.83057631E-34
 -1.36611526E-33  2.21664874E-01  6.83057631E-34 -1.36611526E-33  2.21664874E-01
  0.00000000E+00  1.43090062E+00 -8.86659498E-01  0.00000000E+00  1.43090062E+00
 -8.86659498E-01  0.00000000E+00  1.43090062E+00 -8.86659498E-01  0.00000000E+00
  1.43090062E+00 -8.86659498E-01  0.00000000E+00  1.43090062E+00 -8.86659498E-01
  0.00000000E+00  1.43090062E+00 -8.86659498E-01 -1.75234787E-16 -1.43090062E+00
 -8.86659498E-01 -1.75234787E-16 -1.43090062E+00 -8.86659498E-01 -1.75234787E-16
 -1.43090062E+00 -8.86659498E-01 -1.75234787E-16 -1.43090062E+00 -8.86659498E-01
 -1.75234787E-16 -1.43090062E+00 -8.86659498E-01 -1.75234787E-16 -1.43090062E+00
 -8.86659498E-01
Num ILSW                                   I              100
ILSW                                       I   N=         100
           0           1           0           0           2           0
           0           0           0           0           0          -1
           5           0           0           1           0           0
           0           0           0           0           0           0
           1           0           0           0           0           0
           0           0      100000           0          -1           0
           0           0           0           0           0           0
           0           0           0           1           0           0
           0 -2000000000           1           0           0           0
           0           0           4          52           0           0
           0           0           0           0           0           0
           0           0           0           3           0           1
           0           0           0           0           0           0
           0           0           0           0           0           0
           0           0           0           0           0           0
           0           0           0           0           0           0
           0           0           0           0
Num RLSW                                   I               52
RLSW                                       R   N=          52
  1.00000000E+00  1.00000000E+00  1.00000000E+00  1.00000000E+00  1.00000000E+00
  0.00000000E+00  0.00000000E+00  1.00000000E+00  0.00000000E+00  0.00000000E+00
  0.00000000E+00  0.00000000E+00  1.00000000E+00  0.00000000E+00  0.00000000E+00
  0.00000000E+00  0.00000000E+00  1.00000000E+00  0.00000000E+00  0.00000000E+00
  0.00000000E+00  0.00000000E+00  1.00000000E+00  0.00000000E+00  0.00000000E+00
  0.00000000E+00  0.00000000E+00  1.00000000E+00  0.00000000E+00  0.00000000E+00
  0.00000000E+00  0.00000000E+00  1.00000000E+00  0.00000000E+00  0.00000000E+00
  0.00000000E+00  0.00000000E+00  0.00000000E+00  1.00000000E+00  1.00000000E+00
  0.00000000E+00  1.00000000E+00  0.00000000E+00  0.00000000E+00  0.00000000E+00
  0.00000000E+00  0.00000000E+00  0.00000000E+00  0.00000000E+00  0.00000000E+00
  0.00000000E+00  0.00000000E+00
MxBond                                     I                2
NBond                                      I   N=           3
           2           1           1
IBond                                      I   N=           6
           2           3           1           0           1           0
RBond                                      R   N=           6
  1.00000000E+00  1.00000000E+00  1.00000000E+00  0.00000000E+00  1.00000000E+00
  0.00000000E+00
Virial Ratio                               R      2.000759830343449E+00
SCF Energy                                 R     -7.605768094298794E+01
Total Energy                               R     -7.605768094298794E+01
RMS Density                                R      5.461329714941905E-09
Job Status                                 I                1
Nuclear derivative order                   I                0
External E-field                           R   N=          35
  0.00000000E+00  0.00000000E+00  0.00000000E+00  0.00000000E+00  0.00000000E+00
  0.00000000E+00  0.00000000E+00  0.00000000E+00  0.00000000E+00  0.00000000E+00
  0.00000000E+00  0.00000000E+00  0.00000000E+00  0.00000000E+00  0.00000000E+00
  0.00000000E+00  0.00000000E+00  0.00000000E+00  0.00000000E+00  0.00000000E+00
  0.00000000E+00  0.00000000E+00  0.00000000E+00  0.00000000E+00  0.00000000E+00
  0.00000000E+00  0.00000000E+00  0.00000000E+00  0.00000000E+00  0.00000000E+00
  0.00000000E+00  0.00000000E+00  0.00000000E+00  0.00000000E+00  0.00000000E+00
IOpCl                                      I                0
IROHF                                      I                0
Alpha Orbital Energies                     R   N=          65
 -2.05554368E+01 -1.34631774E+00 -7.10431166E-01 -5.78483298E-01 -5.05300289E-01
  1.32155767E-01  2.00121850E-01  5.25604562E-01  5.71417133E-01  6.53268275E-01
  7.40747439E-01  7.80999718E-01  7.95456958E-01  8.54747441E-01  8.60518959E-01
  9.54426087E-01  1.19566556E+00  1.45668158E+00  1.48023488E+00  1.86261438E+00
  1.89799812E+00  2.03612019E+00  2.06497183E+00  2.20641419E+00  2.26344695E+00
  2.52416613E+00  2.71424044E+00  3.26513549E+00  3.37335875E+00  3.43734238E+00
  3.58117950E+00  3.60135205E+00  3.86236127E+00  3.87661985E+00  3.95088216E+00
  3.96089864E+00  3.96618560E+00  3.97159742E+00  4.27883549E+00  4.31209248E+00
  4.50466878E+00  4.53133167E+00  4.71035168E+00  4.81295927E+00  4.90797164E+00
  5.07847213E+00  5.65072527E+00  5.75427575E+00  6.04981908E+00  6.75677370E+00
  6.89982859E+00  6.94129326E+00  6.95173536E+00  7.01452869E+00  7.03509364E+00
  7.23507447E+00  7.24186298E+00  7.34083150E+00  7.51691353E+00  7.94466790E+00
  8.92034328E+00  8.93849637E+00  9.91237776E+00  1.53826462E+01  1.66534082E+01
Alpha MO coefficients                      R   N=        4225
  9.76099882E-01 -1.64760904E-02  4.60443994E-02 -5.18446033E-03  0.00000000E+00
  0.00000000E+00 -1.91348644E-03  0.00000000E+00  0.00000000E+00  2.09234949E-03
  0.00000000E+00  0.00000000E+00  6.39316285E-04  2.00885709E-03  2.02791129E-03
  2.07942625E-03  0.00000000E+00  0.00000000E+00  0.00000000E+00  4.34208808E-03
  3.47239444E-03  3.43985439E-03  0.00000000E+00  0.00000000E+00  0.00000000E+00
  0.00000000E+00  0.00000000E+00 -3.05403563E-04  0.00000000E+00  0.00000000E+00
 -2.43110256E-04  0.00000000E+00  0.00000000E+00 -4.05795003E-05  0.00000000E+00
  4.16923903E-04  1.29629736E-03  3.09501923E-04  0.00000000E+00 -3.20752923E-04
  1.69076719E-04  0.00000000E+00 -5.36292838E-04  2.39107839E-04  1.54608024E-05
  1.60601491E-04 -5.07071833E-05  0.00000000E+00  0.00000000E+00  1.01270864E-05
  4.16923903E-04  1.29629736E-03  3.09501923E-04  0.00000000E+00  3.20752923E-04
  1.69076719E-04  0.00000000E+00  5.36292838E-04  2.39107839E-04  1.54608024E-05
  1.60601491E-04 -5.07071833E-05  0.00000000E+00  0.00000000E+00 -1.01270864E-05
 -2.01638512E-01  4.78411634E-01  1.31954614E-01  2.81162950E-01  0.00000000E+00
  0.00000000E+00 -4.58296936E-02  0.00000000E+00  0.00000000E+00 -5.45341930E-02
  0.00000000E+00  0.00000000E+00 -1.29704424E-02 -1.83455726E-03  4.64421460E-03
  2.95090967E-03  0.00000000E+00  0.00000000E+00  0.00000000E+00 -6.41281580E-03
  3.91847220E-03  2.42905399E-03  0.00000000E+00  0.00000000E+00  0.00000000E+00
  0.00000000E+00  0.00000000E+00 -2.35128048E-03  0.00000000E+00  0.00000000E+00
  1.80537153E-04  0.00000000E+00  0.00000000E+00 -3.73238544E-03  0.00000000E+00
  9.11227659E-02  7.04089002E-02  7.61946973E-03  0.00000000E+00 -1.14067147E-02
  8.00898480E-03  0.00000000E+00 -1.15280368E-02  6.17809904E-03  2.40531529E-04
  3.41140954E-03  1.71920858E-03  0.00000000E+00  0.00000000E+00 -2.40026000E-03
  9.11227659E-02  7.04089002E-02  7.61946973E-03  0.00000000E+00  1.14067147E-02
  8.00898480E-03  0.00000000E+00  1.15280368E-02  6.17809904E-03  2.40531529E-04
  3.41140954E-03  1.71920858E-03  0.00000000E+00  0.00000000E+00  2.40026000E-03
  0.00000000E+00  0.00000000E+00  0.00000000E+00  0.00000000E+00  0.00000000E+00
  2.87175708E-01  0.00000000E+00  0.00000000E+00  3.11646704E-01  0.00000000E+00
  0.00000000E+00  1.60438744E-01  0.00000000E+00  0.00000000E+00  0.00000000E+00
  0.00000000E+00  0.00000000E+00  0.00000000E+00 -1.32534572E-02  0.00000000E+00
  0.00000000E+00  0.00000000E+00  0.00000000E+00  0.00000000E+00 -1.75581982E-02
  0.00000000E+00  1.34786150E-02  0.00000000E+00  0.00000000E+00  2.00885373E-03
  0.00000000E+00  0.00000000E+00  4.79538132E-03  0.00000000E+00  0.00000000E+00
  1.45559992E-01  2.16446004E-01  6.41045549E-02  0.00000000E+00 -1.04534905E-02
  1.36773577E-02  0.00000000E+00 -2.26155524E-02  2.66222705E-02 -9.24946967E-04
  4.53189295E-03  4.90119872E-03  0.00000000E+00  0.00000000E+00 -6.17968433E-03
 -1.45559992E-01 -2.16446004E-01 -6.41045549E-02  0.00000000E+00 -1.04534905E-02
 -1.36773577E-02  0.00000000E+00 -2.26155524E-02 -2.66222705E-02  9.24946967E-04
 -4.53189295E-03 -4.90119872E-03  0.00000000E+00  0.00000000E+00 -6.17968433E-03
 -6.54165042E-02  1.78464170E-01  4.50340251E-02  3.22959718E-01  0.00000000E+00
  0.00000000E+00  3.18406678E-01  0.00000000E+00  0.00000000E+00  3.49067368E-01
  0.00000000E+00  0.00000000E+00  2.75588058E-01  4.06336055E-03 -2.01865665E-03
 -7.62385542E-03  0.00000000E+00  0.00000000E+00  0.00000000E+00  1.27252712E-03
 -7.98688672E-03 -2.79759400E-02  0.00000000E+00  0.00000000E+00  0.00000000E+00
  0.00000000E+00  0.00000000E+00  1.66344432E-02  0.00000000E+00  0.00000000E+00
  4.11299321E-03  0.00000000E+00  0.00000000E+00  9.95591705E-03  0.00000000E+00
 -8.63749058E-02 -1.44957290E-01 -3.11322148E-02  0.00000000E+00  9.18989392E-03
  1.41454970E-03  0.00000000E+00  2.47538794E-02  1.16181632E-02  8.74610064E-04
 -4.69320501E-03  2.29385610E-03  0.00000000E+00  0.00000000E+00 -9.92238956E-05
 -8.63749058E-02 -1.44957290E-01 -3.11322148E-02  0.00000000E+00 -9.18989392E-03
  1.41454970E-03  0.00000000E+00 -2.47538794E-02  1.16181632E-02  8.74610064E-04
 -4.69320501E-03  2.29385610E-03  0.00000000E+00  0.00000000E+00  9.92238956E-05
  0.00000000E+00  0.00000000E+00  0.00000000E+00  0.00000000E+00  3.62167951E-01
  0.00000000E+00  0.00000000E+00  4.12330871E-01  0.00000000E+00  0.00000000E+00
  3.82606416E-01  0.00000000E+00  0.00000000E+00  0.00000000E+00  0.00000000E+00
  0.00000000E+00  0.00000000E+00 -5.27138089E-03  0.00000000E+00  0.00000000E+00
  0.00000000E+00  0.00000000E+00  0.00000000E+00 -1.73702964E-02  0.00000000E+00
  1.15297068E-02  0.00000000E+00  0.00000000E+00  1.05046066E-02  0.00000000E+00
  0.00000000E+00  8.51560875E-03  0.00000000E+00  0.00000000E+00  0.00000000E+00
  0.00000000E+00  0.00000000E+00  0.00000000E+00  1.03870679E-02  0.00000000E+00
  0.00000000E+00  3.16264896E-02  0.00000000E+00  0.00000000E+00  0.00000000E+00
  0.00000000E+00  0.00000000E+00 -4.54881552E-03  3.13354917E-03  0.00000000E+00
  0.00000000E+00  0.00000000E+00  0.00000000E+00  1.03870679E-02  0.00000000E+00
  0.00000000E+00  3.16264896E-02  0.00000000E+00  0.00000000E+00  0.00000000E+00
  0.00000000E+00  0.00000000E+00  4.54881552E-03  3.13354917E-03  0.00000000E+00
 -5.41725093E-02  1.84155146E-01 -1.15528519E-01  1.95824371E+00  0.00000000E+00
  0.00000000E+00 -8.59873527E-02  0.00000000E+00  0.00000000E+00 -1.51963325E-01
  0.00000000E+00  0.00000000E+00 -4.32271487E-01 -3.00116881E-02 -3.02033637E-02
 -2.94268869E-02  0.00000000E+00  0.00000000E+00  0.00000000E+00 -2.51196311E-01
 -1.82617805E-01 -1.92911759E-01  0.00000000E+00  0.00000000E+00  0.00000000E+00
  0.00000000E+00  0.00000000E+00 -6.14036383E-03  0.00000000E+00  0.00000000E+00
  9.90742501E-04  0.00000000E+00  0.00000000E+00 -1.13915699E-02  0.00000000E+00
 -4.61843340E-02 -8.46809572E-02 -1.01254161E+00  0.00000000E+00 -6.42064452E-03
  3.53730137E-03  0.00000000E+00  1.03127220E-01 -6.97665319E-02 -2.09130782E-02
 -3.83634938E-02 -3.10274560E-02  0.00000000E+00  0.00000000E+00  1.40923458E-02
 -4.61843340E-02 -8.46809572E-02 -1.01254161E+00  0.00000000E+00  6.42064452E-03
  3.53730137E-03  0.00000000E+00 -1.03127220E-01 -6.97665319E-02 -2.09130782E-02
 -3.83634938E-02 -3.10274560E-02  0.00000000E+00  0.00000000E+00 -1.40923458E-02
  0.00000000E+00  0.00000000E+00  0.00000000E+00  0.00000000E+00  0.00000000E+00
 -1.44284878E-01  0.00000000E+00  0.00000000E+00 -1.52863914E-01  0.00000000E+00
  0.00000000E+00 -8.29933543E-01  0.00000000E+00  0.00000000E+00  0.00000000E+00
  0.00000000E+00  0.00000000E+00  0.00000000E+00  6.61161815E-04  0.00000000E+00
  0.00000000E+00  0.00000000E+00  0.00000000E+00  0.00000000E+00  9.19016493E-02
  0.00000000E+00 -4.29327080E-02  0.00000000E+00  0.00000000E+00 -9.15756141E-03
  0.00000000E+00  0.00000000E+00 -2.38227570E-02  0.00000000E+00  0.00000000E+00
  5.95873306E-02 -3.31820543E-02  1.83368616E+00  0.00000000E+00  8.18148734E-05
 -2.16137043E-03  0.00000000E+00 -1.30462259E-01  1.07714626E-01  3.14782756E-02
  5.28683550E-02  4.20227532E-02  0.00000000E+00  0.00000000E+00 -1.87559881E-02
 -5.95873306E-02  3.31820543E-02 -1.83368616E+00  0.00000000E+00  8.18148734E-05
  2.16137043E-03  0.00000000E+00 -1.30462259E-01 -1.07714626E-01 -3.14782756E-02
 -5.28683550E-02 -4.20227532E-02  0.00000000E+00  0.00000000E+00 -1.87559881E-02
  0.00000000E+00  0.00000000E+00  0.00000000E+00  0.00000000E+00  0.00000000E+00
 -1.38912186E-01  0.00000000E+00  0.00000000E+00 -4.94984115E-02  0.00000000E+00
  0.00000000E+00 -1.23140002E+00  0.00000000E+00  0.00000000E+00  0.00000000E+00
  0.00000000E+00  0.00000000E+00  0.00000000E+00 -3.00064649E-02  0.00000000E+00
  0.00000000E+00  0.00000000E+00  0.00000000E+00  0.00000000E+00  3.57959975E-02
  0.00000000E+00 -5.47197478E-02  0.00000000E+00  0.00000000E+00 -1.83393141E-02
  0.00000000E+00  0.00000000E+00 -2.91743144E-02  0.00000000E+00  0.00000000E+00
 -2.05325734E-02  1.82098489E+00 -6.93789964E-01  0.00000000E+00 -1.93302075E-02
  8.38260500E-03  0.00000000E+00 -7.13652018E-03 -5.68626679E-02 -1.05706942E-01
 -9.01887092E-02 -1.08095010E-01  0.00000000E+00  0.00000000E+00 -9.38077931E-03
  2.05325734E-02 -1.82098489E+00  6.93789964E-01  0.00000000E+00 -1.93302075E-02
 -8.38260500E-03  0.00000000E+00 -7.13652018E-03  5.68626679E-02  1.05706942E-01
  9.01887092E-02  1.08095010E-01  0.00000000E+00  0.00000000E+00 -9.38077931E-03
  6.76663707E-02 -1.44386315E-01 -1.21394024E-01 -6.85618073E-01  0.00000000E+00
  0.00000000E+00  1.04645708E-01  0.00000000E+00  0.00000000E+00  9.04509105E-03
  0.00000000E+00  0.00000000E+00  8.75235603E-01 -3.24366625E-02  1.07013763E-02
 -1.69592507E-02  0.00000000E+00  0.00000000E+00  0.00000000E+00 -1.03453761E-01
 -1.07335481E-01 -7.83156417E-02  0.00000000E+00  0.00000000E+00  0.00000000E+00
  0.00000000E+00  0.00000000E+00  3.20870382E-02  0.00000000E+00  0.00000000E+00
  1.77843607E-02  0.00000000E+00  0.00000000E+00  1.99258693E-02  0.00000000E+00
 -5.26060488E-02  1.98610781E+00 -6.94114957E-01  0.00000000E+00 -4.50168325E-03
  3.47964547E-03  0.00000000E+00  1.37305860E-01  6.02701628E-02 -1.27977690E-01
 -1.37881826E-01 -1.12997933E-01  0.00000000E+00  0.00000000E+00 -5.97117622E-04
 -5.26060488E-02  1.98610781E+00 -6.94114957E-01  0.00000000E+00  4.50168325E-03
  3.47964547E-03  0.00000000E+00 -1.37305860E-01  6.02701628E-02 -1.27977690E-01
 -1.37881826E-01 -1.12997933E-01  0.00000000E+00  0.00000000E+00  5.97117622E-04
 -8.98197782E-03  1.22913786E-01  2.15697573E-01  2.90555314E+00  0.00000000E+00
  0.00000000E+00  1.97493188E-01  0.00000000E+00  0.00000000E+00  4.06853072E-01
  0.00000000E+00  0.00000000E+00 -2.38277337E+00  5.06874214E-02  2.14084308E-02
  1.49034542E-02  0.00000000E+00  0.00000000E+00  0.00000000E+00  5.32110037E-02
  5.24149341E-01  3.98120284E-01  0.00000000E+00  0.00000000E+00  0.00000000E+00
  0.00000000E+00  0.00000000E+00 -1.25954676E-01  0.00000000E+00  0.00000000E+00
 -4.15661429E-02  0.00000000E+00  0.00000000E+00 -1.02886865E-01  0.00000000E+00
 -1.07069186E-03 -1.84252082E+00 -3.47600269E-01  0.00000000E+00  3.15809304E-02
 -2.25604882E-02  0.00000000E+00  8.64015513E-01 -5.58491840E-01  1.94552949E-02
 -6.72801939E-02 -2.30814045E-02  0.00000000E+00  0.00000000E+00  6.52502481E-02
 -1.07069186E-03 -1.84252082E+00 -3.47600269E-01  0.00000000E+00 -3.15809304E-02
 -2.25604882E-02  0.00000000E+00 -8.64015513E-01 -5.58491840E-01  1.94552949E-02
 -6.72801939E-02 -2.30814045E-02  0.00000000E+00  0.00000000E+00 -6.52502481E-02
  0.00000000E+00  0.00000000E+00  0.00000000E+00  0.00000000E+00  1.05495563E-01
  0.00000000E+00  0.00000000E+00  1.56648377E+00  0.00000000E+00  0.00000000E+00
 -1.30337829E+00  0.00000000E+00  0.00000000E+00  0.00000000E+00  0.00000000E+00
  0.00000000E+00  0.00000000E+00 -6.85481395E-03  0.00000000E+00  0.00000000E+00
  0.00000000E+00  0.00000000E+00  0.00000000E+00  1.84973829E-02  0.00000000E+00
 -3.92445488E-01  0.00000000E+00  0.00000000E+00 -1.78064650E-01  0.00000000E+00
  0.00000000E+00 -1.77410829E-01  0.00000000E+00  0.00000000E+00  0.00000000E+00
  0.00000000E+00  0.00000000E+00  0.00000000E+00  5.46265230E-03  0.00000000E+00
  0.00000000E+00 -1.88091261E-02  0.00000000E+00  0.00000000E+00  0.00000000E+00
  0.00000000E+00  0.00000000E+00 -9.65836192E-03  7.22435741E-03  0.00000000E+00
  0.00000000E+00  0.00000000E+00  0.00000000E+00  5.46265230E-03  0.00000000E+00
  0.00000000E+00 -1.88091261E-02  0.00000000E+00  0.00000000E+00  0.00000000E+00
  0.00000000E+00  0.00000000E+00  9.65836192E-03  7.22435741E-03  0.00000000E+00
  6.52001774E-02 -8.74990917E-02 -5.05075459E-01  2.74633499E+00  0.00000000E+00
  0.00000000E+00  4.49105927E-02  0.00000000E+00  0.00000000E+00  1.11445829E-01
  0.00000000E+00  0.00000000E+00  4.10747940E-01 -8.96479317E-02 -1.11009931E-01
 -5.60215568E-02  0.00000000E+00  0.00000000E+00  0.00000000E+00 -6.48161436E-01
 -4.41455985E-01 -7.08369926E-01  0.00000000E+00  0.00000000E+00  0.00000000E+00
  0.00000000E+00  0.00000000E+00 -1.44102441E-02  0.00000000E+00  0.00000000E+00
 -1.80480761E-02  0.00000000E+00  0.00000000E+00 -3.78447012E-02  0.00000000E+00
 -2.23293368E-02  1.35845243E-01 -5.26790459E-01  0.00000000E+00  3.38005458E-02
  1.99378453E-02  0.00000000E+00 -2.86432371E-01 -6.96571188E-01 -1.34197892E-02
 -1.07945693E-02 -7.22886623E-02  0.00000000E+00  0.00000000E+00  5.20237693E-02
 -2.23293368E-02  1.35845243E-01 -5.26790459E-01  0.00000000E+00 -3.38005458E-02
  1.99378453E-02  0.00000000E+00  2.86432371E-01 -6.96571188E-01 -1.34197892E-02
 -1.07945693E-02 -7.22886623E-02  0.00000000E+00  0.00000000E+00 -5.20237693E-02
  0.00000000E+00  0.00000000E+00  0.00000000E+00  0.00000000E+00  0.00000000E+00
 -2.21044253E-01  0.00000000E+00  0.00000000E+00 -2.53565670E-01  0.00000000E+00
  0.00000000E+00  2.96107256E+00  0.00000000E+00  0.00000000E+00  0.00000000E+00
  0.00000000E+00  0.00000000E+00  0.00000000E+00  1.98641623E-02  0.00000000E+00
  0.00000000E+00  0.00000000E+00  0.00000000E+00  0.00000000E+00 -4.74734790E-01
  0.00000000E+00  1.45063969E-01  0.00000000E+00  0.00000000E+00  2.90609918E-02
  0.00000000E+00  0.00000000E+00  9.83668717E-02  0.00000000E+00  0.00000000E+00
 -3.02651021E-02 -1.41180010E+00 -1.50142655E+00  0.00000000E+00  5.66947893E-02
 -4.27827846E-02  0.00000000E+00  8.76729412E-01 -7.09952699E-01  4.77956466E-03
 -1.09510651E-01 -5.47268925E-02  0.00000000E+00  0.00000000E+00  1.03026516E-01
  3.02651021E-02  1.41180010E+00  1.50142655E+00  0.00000000E+00  5.66947893E-02
  4.27827846E-02  0.00000000E+00  8.76729412E-01  7.09952699E-01 -4.77956466E-03
  1.09510651E-01  5.47268925E-02  0.00000000E+00  0.00000000E+00  1.03026516E-01
  6.91761865E-02 -1.88214491E-01 -9.48962878E-01  7.88830972E+00  0.00000000E+00
  0.00000000E+00  1.59068875E-02  0.00000000E+00  0.00000000E+00 -5.21991350E-01
  0.00000000E+00  0.00000000E+00 -2.24570243E+00 -1.32329689E-01 -1.46741118E-01
 -1.74703936E-01  0.00000000E+00  0.00000000E+00  0.00000000E+00 -1.25664979E+00
 -1.08746220E+00 -1.04243709E+00  0.00000000E+00  0.00000000E+00  0.00000000E+00
  0.00000000E+00  0.00000000E+00  7.72724168E-02  0.00000000E+00  0.00000000E+00
  5.23823429E-02  0.00000000E+00  0.00000000E+00  1.04570839E-02  0.00000000E+00
  1.03436655E-01 -2.50512180E+00 -5.55509015E-01  0.00000000E+00  6.81042092E-03
 -3.89423407E-02  0.00000000E+00  8.33717870E-01  2.58507823E-02  9.17813831E-02
 -2.00565066E-02  5.40558954E-02  0.00000000E+00  0.00000000E+00  5.49869861E-02
  1.03436655E-01 -2.50512180E+00 -5.55509015E-01  0.00000000E+00 -6.81042092E-03
 -3.89423407E-02  0.00000000E+00 -8.33717870E-01  2.58507823E-02  9.17813831E-02
 -2.00565066E-02  5.40558954E-02  0.00000000E+00  0.00000000E+00 -5.49869861E-02
  0.00000000E+00  0.00000000E+00  0.00000000E+00  0.00000000E+00  0.00000000E+00
  0.00000000E+00  0.00000000E+00  0.00000000E+00  0.00000000E+00  0.00000000E+00
  0.00000000E+00  0.00000000E+00  0.00000000E+00  0.00000000E+00  0.00000000E+00
  0.00000000E+00  2.74478066E-02  0.00000000E+00  0.00000000E+00  0.00000000E+00
  0.00000000E+00  0.00000000E+00 -3.17175997E-02  0.00000000E+00  0.00000000E+00
  0.00000000E+00  0.00000000E+00  0.00000000E+00  0.00000000E+00  0.00000000E+00
  0.00000000E+00  0.00000000E+00  0.00000000E+00  0.00000000E+00  1.63802086E-02
  0.00000000E+00  0.00000000E+00  0.00000000E+00 -5.98847373E-02  0.00000000E+00
  0.00000000E+00  8.47710421E-01  0.00000000E+00  0.00000000E+00  0.00000000E+00
  0.00000000E+00  0.00000000E+00 -1.30986497E-02  2.54651158E-02  0.00000000E+00
  0.00000000E+00  0.00000000E+00  0.00000000E+00  5.98847373E-02  0.00000000E+00
  0.00000000E+00 -8.47710421E-01  0.00000000E+00  0.00000000E+00  0.00000000E+00
  0.00000000E+00  0.00000000E+00 -1.30986497E-02 -2.54651158E-02  0.00000000E+00
  0.00000000E+00  0.00000000E+00  0.00000000E+00  0.00000000E+00  2.74501715E-02
  0.00000000E+00  0.00000000E+00  5.64312704E-02  0.00000000E+00  0.00000000E+00
  1.13441465E+00  0.00000000E+00  0.00000000E+00  0.00000000E+00  0.00000000E+00
  0.00000000E+00  0.00000000E+00  2.41029980E-02  0.00000000E+00  0.00000000E+00
  0.00000000E+00  0.00000000E+00  0.00000000E+00 -2.90396853E-03  0.00000000E+00
 -1.39249096E-02  0.00000000E+00  0.00000000E+00  1.94537148E-02  0.00000000E+00
  0.00000000E+00  7.93914807E-03  0.00000000E+00  0.00000000E+00  0.00000000E+00
  0.00000000E+00  0.00000000E+00  0.00000000E+00  7.27476874E-02  0.00000000E+00
  0.00000000E+00 -1.00734615E+00  0.00000000E+00  0.00000000E+00  0.00000000E+00
  0.00000000E+00  0.00000000E+00  4.00603786E-02 -3.03634681E-03  0.00000000E+00
  0.00000000E+00  0.00000000E+00  0.00000000E+00  7.27476874E-02  0.00000000E+00
  0.00000000E+00 -1.00734615E+00  0.00000000E+00  0.00000000E+00  0.00000000E+00
  0.00000000E+00  0.00000000E+00 -4.00603786E-02 -3.03634681E-03  0.00000000E+00
  0.00000000E+00  0.00000000E+00  0.00000000E+00  0.00000000E+00  0.00000000E+00
  1.10797643E-02  0.00000000E+00  0.00000000E+00  1.98887925E-01  0.00000000E+00
  0.00000000E+00  1.67747411E+00  0.00000000E+00  0.00000000E+00  0.00000000E+00
  0.00000000E+00  0.00000000E+00  0.00000000E+00  4.55792353E-03  0.00000000E+00