lih fci scan distance 1.5                                               
SP        CASSCF                                                      gen
Number of atoms                            I                2
Charge                                     I                0
Multiplicity                               I                1
Number of electrons                        I                4
Number of alpha electrons                  I                2
Number of beta electrons                   I                2
Number of basis functions                  I               32
Number of independent functions            I               32
Number of point charges in /Mol/           I                0
Number of translation vectors              I                0
Info1-9                                    I   N=           9
          13          13           0           0           0         111
           1           2           2
Num ILSW                                   I              100
ILSW                                       I   N=         100
           0           0           0           0           2           0
           0           0           0           0           0     1000000
           0           0           0           0           0           0
           0     1000000           0           0           0           0
           1           0           0           0     1000000           0
           0           0           0           0          -1           0
           0           0           0           0           0           0
           0           0           0           1           0           0
           0           0           1     1000000     1000000           0
           0           0           0           0           0           0
           0           0           0           0           0           0
           0           0           0           0           0           0
           0           0           0           0           0           0
           0           0           0           0           0           0
           0           0           0           0           0           0
           0           0           0           0           0           0
           0           0           0           0
Number of CAS Electrons                    I                4
Number of CAS Orbitals                     I               32
Number of contracted shells                I               14
Highest angular momentum                   I                2
Largest degree of contraction              I                8
Number of primitive shells                 I               32
Pure/Cartesian d shells                    I                0
Pure/Cartesian f shells                    I                0
Virial Ratio                               R      1.998768059009661E+00
SCF Energy                                 R     -7.982292624090235E+00
MP2 Energy                                 R     -8.010662321531782E+00
Total Energy                               R     -8.010662321531782E+00
Post-SCF wavefunction norm                 R      1.007227592198331E+00
RMS Density                                R      7.732132889937366E-09
Atomic numbers                             I   N=           2
           3           1
Nuclear charges                            R   N=           2
  3.00000000E+00  1.00000000E+00
Current cartesian coordinates              R   N=           6
  0.00000000E+00  0.00000000E+00  7.08647300E-01  0.00000000E+00  0.00000000E+00
 -2.12594190E+00
Int Atom Types                             I   N=           2
           0           0
Force Field                                I                0
MM charges                                 R   N=           2
  0.00000000E+00  0.00000000E+00
Integer atomic weights                     I   N=           2
           7           1
Real atomic weights                        R   N=           2
  7.01600450E+00  1.00782504E+00
Atom residue info                          I   N=           2
           0           0
Atom fragment info                         I   N=           2
           0           0
Atom residue num                           I   N=           2
           0           0
Nuclear spins                              I   N=           2
           3           1
Nuclear ZEff                               R   N=           2
 -1.35000000E+00 -1.00000000E+00
Nuclear QMom                               R   N=           2
 -3.66000000E+00  0.00000000E+00
Nuclear GFac                               R   N=           2
  3.25642400E+00  2.79284600E+00
MicOpt                                     I   N=           2
           0           0
Constraint Structure                       R   N=           6
  0.00000000E+00  0.00000000E+00  7.08647300E-01  0.00000000E+00  0.00000000E+00
 -2.12594190E+00
ONIOM Charges                              I   N=          16
           0           0           0           0           0           0
           0           0           0           0           0           0
           0           0           0           0
ONIOM Multiplicities                       I   N=          16
           1           0           0           0           0           0
           0           0           0           0           0           0
           0           0           0           0
Atom Layers                                I   N=           2
           1           1
Atom Modifiers                             I   N=           2
           0           0
Int Atom Modified Types                    I   N=           2
           0           0
Link Atoms                                 I   N=           2
           0           0
Atom Modified MM Charges                   R   N=           2
  0.00000000E+00  0.00000000E+00
Link Distances                             R   N=           8
  0.00000000E+00  0.00000000E+00  0.00000000E+00  0.00000000E+00  0.00000000E+00
  0.00000000E+00  0.00000000E+00  0.00000000E+00
MxBond                                     I                1
NBond                                      I   N=           2
           1           1
IBond                                      I   N=           2
           2           1
RBond                                      R   N=           2
  2.00000000E+00  2.00000000E+00
Shell types                                I   N=          14
           0           0           0           1           1          -2
           0           1          -2           0           0           1
           0           1
Number of primitives per shell             I   N=          14
           8           8           1           3           1           1
           1           1           1           3           1           1
           1           1
Shell to atom map                          I   N=          14
           1           1           1           1           1           1
           1           1           1           2           2           2
           2           2
Primitive exponents                        R   N=          32
  1.46900000E+03  2.20500000E+02  5.02600000E+01  1.42400000E+01  4.58100000E+00
  1.58000000E+00  5.64000000E-01  7.34500000E-02  1.46900000E+03  2.20500000E+02
  5.02600000E+01  1.42400000E+01  4.58100000E+00  1.58000000E+00  5.64000000E-01
  7.34500000E-02  2.80500000E-02  1.53400000E+00  2.74900000E-01  7.36200000E-02
  2.40300000E-02  1.23900000E-01  8.63454000E-03  5.62736000E-03  7.23614300E-02
  1.30100000E+01  1.96200000E+00  4.44600000E-01  1.22000000E-01  7.27000000E-01
  2.97400000E-02  1.41000000E-01
Contraction coefficients                   R   N=          32
  7.65601232E-04  5.88893271E-03  2.96555537E-02  1.09123163E-01  2.82641784E-01
  4.52887111E-01  2.74630957E-01  9.74592378E-03 -2.24991961E-04 -1.73056317E-03
 -8.79156088E-03 -3.31525655E-02 -9.16879740E-02 -1.80010443E-01 -2.55703364E-01
  1.07827772E+00  1.00000000E+00  3.80039810E-02  2.32032119E-01  8.34631408E-01
  1.00000000E+00  1.00000000E+00  1.00000000E+00  1.00000000E+00  1.00000000E+00
  3.34987264E-02  2.34800801E-01  8.13682958E-01  1.00000000E+00  1.00000000E+00
  1.00000000E+00  1.00000000E+00
Coordinates of each shell                  R   N=          42
  0.00000000E+00  0.00000000E+00  7.08647300E-01  0.00000000E+00  0.00000000E+00
  7.08647300E-01  0.00000000E+00  0.00000000E+00  7.08647300E-01  0.00000000E+00
  0.00000000E+00  7.08647300E-01  0.00000000E+00  0.00000000E+00  7.08647300E-01
  0.00000000E+00  0.00000000E+00  7.08647300E-01  0.00000000E+00  0.00000000E+00
  7.08647300E-01  0.00000000E+00  0.00000000E+00  7.08647300E-01  0.00000000E+00
  0.00000000E+00  7.08647300E-01  0.00000000E+00  0.00000000E+00 -2.12594190E+00
  0.00000000E+00  0.00000000E+00 -2.12594190E+00  0.00000000E+00  0.00000000E+00
 -2.12594190E+00  0.00000000E+00  0.00000000E+00 -2.12594190E+00  0.00000000E+00
  0.00000000E+00 -2.12594190E+00
Alpha Orbital Energies                     R   N=          32
 -2.44649015E+00 -3.06312197E-01 -6.55946629E-03  1.21837402E-02  1.21837402E-02
  1.89938734E-02  3.19770950E-02  5.19523292E-02  5.19523292E-02  8.01431337E-02
  1.43336744E-01  1.80816046E-01  1.88480340E-01  1.88480340E-01  1.96997754E-01
  1.96997754E-01  2.01319777E-01  2.01319777E-01  2.39791407E-01  4.58820511E-01
  5.42190511E-01  5.42190511E-01  5.59665959E-01  5.59665959E-01  5.59805310E-01
  5.67888624E-01  5.67888624E-01  9.90924371E-01  1.57844000E+00  2.02096986E+00
  2.03802231E+00  2.03802231E+00
Alpha MO coefficients                      R   N=        1024
  9.89599129E-01 -2.12727025E-02 -1.31851583E-02  0.00000000E+00  0.00000000E+00
  2.60805372E-02  0.00000000E+00  0.00000000E+00 -8.17686044E-04 -4.50779372E-03
  0.00000000E+00  0.00000000E+00  5.31594991E-16  0.00000000E+00  5.87861744E-04
  0.00000000E+00  0.00000000E+00  1.24857366E-03 -4.80488806E-03  0.00000000E+00
  0.00000000E+00 -4.52542712E-16  0.00000000E+00  3.26858396E-03  3.08880779E-02
  0.00000000E+00  0.00000000E+00  1.05661965E-03  1.13715182E-02  0.00000000E+00
  0.00000000E+00  5.95578414E-03 -1.82829781E-02  3.37783219E-01  8.44335158E-02
  0.00000000E+00  0.00000000E+00 -3.24905388E-01  0.00000000E+00  0.00000000E+00
  1.65010536E-02  3.51777826E-02  0.00000000E+00  0.00000000E+00  3.69351753E-17
  0.00000000E+00 -6.38319470E-03  0.00000000E+00  0.00000000E+00 -8.31979341E-03
  4.72238625E-02  0.00000000E+00  0.00000000E+00  7.85564704E-17  0.00000000E+00
  4.08675014E-01  1.69394203E-01  0.00000000E+00  0.00000000E+00  1.54978466E-02
  2.51904917E-02  0.00000000E+00  0.00000000E+00 -2.76015147E-03 -3.55175311E-03
  1.34915129E-01 -3.36975153E-01  0.00000000E+00  0.00000000E+00  1.39719434E-01
  0.00000000E+00  0.00000000E+00  5.04527538E-01  1.98285321E-02  0.00000000E+00
  0.00000000E+00 -2.32555120E-17  0.00000000E+00  6.59924830E-01  0.00000000E+00
  0.00000000E+00  2.98544049E-01  2.32826018E-04  0.00000000E+00  0.00000000E+00
 -1.07295131E-16  0.00000000E+00 -5.40265121E-02 -9.36853789E-02  0.00000000E+00
  0.00000000E+00 -5.56184454E-04  4.37978909E-01  0.00000000E+00  0.00000000E+00
 -1.99537311E-02  0.00000000E+00  0.00000000E+00  0.00000000E+00  0.00000000E+00
  5.62363180E-02  0.00000000E+00  0.00000000E+00 -6.97416429E-02  0.00000000E+00
  0.00000000E+00  0.00000000E+00 -1.73115233E-02  0.00000000E+00  0.00000000E+00
  0.00000000E+00  0.00000000E+00  1.02611695E+00  0.00000000E+00  0.00000000E+00
  0.00000000E+00  5.11702438E-02  0.00000000E+00  0.00000000E+00  0.00000000E+00
  0.00000000E+00  0.00000000E+00  1.55653090E-04  0.00000000E+00  0.00000000E+00
  0.00000000E+00  7.29740305E-03  0.00000000E+00  0.00000000E+00  0.00000000E+00
  0.00000000E+00  5.62363180E-02  0.00000000E+00  0.00000000E+00 -6.97416429E-02
  0.00000000E+00  0.00000000E+00  0.00000000E+00 -1.73115233E-02  0.00000000E+00
  0.00000000E+00  0.00000000E+00  0.00000000E+00  1.02611695E+00  0.00000000E+00
  0.00000000E+00  0.00000000E+00  5.11702438E-02  0.00000000E+00  0.00000000E+00
  0.00000000E+00  0.00000000E+00  0.00000000E+00  1.55653090E-04  0.00000000E+00
  0.00000000E+00  0.00000000E+00  7.29740305E-03  0.00000000E+00  0.00000000E+00
  1.41411356E-02 -4.75904728E-02 -2.52717032E-01  0.00000000E+00  0.00000000E+00
 -5.10167402E-02  0.00000000E+00  0.00000000E+00 -4.96565172E-01 -2.44858682E-02
  0.00000000E+00  0.00000000E+00 -2.46524967E-16  0.00000000E+00 -7.78696842E-02
  0.00000000E+00  0.00000000E+00  1.09724808E+00  1.96385830E-02  0.00000000E+00
  0.00000000E+00  4.25549664E-16  0.00000000E+00  4.53543195E-02  7.70505529E-02
  0.00000000E+00  0.00000000E+00  4.13960601E-04 -1.64512484E-02  0.00000000E+00
  0.00000000E+00  3.56149848E-02 -6.15576044E-02  2.81799510E-02 -6.61773121E-02
  0.00000000E+00  0.00000000E+00  5.78262697E-02  0.00000000E+00  0.00000000E+00
  1.07239168E+00  7.33708427E-02  0.00000000E+00  0.00000000E+00  1.29326165E-16
  0.00000000E+00 -1.55616483E+00  0.00000000E+00  0.00000000E+00 -3.23908924E-02
 -2.85780089E-02  0.00000000E+00  0.00000000E+00 -1.87495188E-16  0.00000000E+00
  5.74848221E-04 -2.09804091E-01  0.00000000E+00  0.00000000E+00 -7.20436826E-04
  1.69526901E+00  0.00000000E+00  0.00000000E+00 -1.96600510E-02  0.00000000E+00
  0.00000000E+00  0.00000000E+00  9.40044973E-02  0.00000000E+00  0.00000000E+00
  1.10036179E+00  0.00000000E+00  0.00000000E+00  0.00000000E+00 -5.89093075E-02
  0.00000000E+00  0.00000000E+00  0.00000000E+00  0.00000000E+00 -6.04427627E-01
  0.00000000E+00  0.00000000E+00  0.00000000E+00  1.96080364E-01  0.00000000E+00
  0.00000000E+00  0.00000000E+00  0.00000000E+00  0.00000000E+00  4.14965838E-03
  0.00000000E+00  0.00000000E+00  0.00000000E+00  1.07464566E-02  0.00000000E+00
  0.00000000E+00  0.00000000E+00  0.00000000E+00  0.00000000E+00  0.00000000E+00
  9.40044973E-02  0.00000000E+00  0.00000000E+00  1.10036179E+00  0.00000000E+00
  0.00000000E+00  0.00000000E+00 -5.89093075E-02  0.00000000E+00  0.00000000E+00
  0.00000000E+00  0.00000000E+00 -6.04427627E-01  0.00000000E+00  0.00000000E+00
  0.00000000E+00  1.96080364E-01  0.00000000E+00  0.00000000E+00  0.00000000E+00
  0.00000000E+00  0.00000000E+00  4.14965838E-03  0.00000000E+00  0.00000000E+00
  0.00000000E+00  1.07464566E-02  0.00000000E+00  9.02179264E-02  4.74272644E-02
 -6.47702320E+00  0.00000000E+00  0.00000000E+00 -1.71811913E-01  0.00000000E+00
  0.00000000E+00  3.60940378E+00  9.59647998E-02  0.00000000E+00  0.00000000E+00
  1.46878794E-15  0.00000000E+00  2.92773617E-03  0.00000000E+00  0.00000000E+00
 -4.52071698E-01 -2.67695617E-01  0.00000000E+00  0.00000000E+00 -1.89091568E-15
  0.00000000E+00  6.23118483E-02  2.44467522E-01  0.00000000E+00  0.00000000E+00
 -8.53928404E-03  6.70601211E+00  0.00000000E+00  0.00000000E+00  7.09577229E-02
 -3.86406542E-02 -9.80359522E-02 -4.13506595E+00  0.00000000E+00  0.00000000E+00
  4.78502096E-01  0.00000000E+00  0.00000000E+00  1.37074134E+00  1.41851239E-01
  0.00000000E+00  0.00000000E+00  3.58485293E-15  0.00000000E+00 -5.84971406E-01
  0.00000000E+00  0.00000000E+00  2.37482071E-01 -1.90318125E-01  0.00000000E+00
  0.00000000E+00 -6.15381708E-15  0.00000000E+00 -8.71798030E-02 -4.70267331E-01
  0.00000000E+00  0.00000000E+00 -1.96584651E-02  5.83483222E+00  0.00000000E+00
  0.00000000E+00  1.29102670E-01 -2.86333868E-01 -1.07325416E+00  5.43737975E-01
  0.00000000E+00  0.00000000E+00 -8.12265468E-01  0.00000000E+00  0.00000000E+00
  1.14643706E+00  3.20767570E-01  0.00000000E+00  0.00000000E+00  6.07759133E-15
  0.00000000E+00 -7.79444173E-01  0.00000000E+00  0.00000000E+00 -1.61233757E-01
 -9.06664992E-01  0.00000000E+00  0.00000000E+00 -1.40665864E-14  0.00000000E+00
 -6.15597075E-02 -2.94630395E-01  0.00000000E+00  0.00000000E+00 -4.89322625E-03
  1.52322574E+00  0.00000000E+00  0.00000000E+00 -1.99874252E-01  0.00000000E+00
  0.00000000E+00  0.00000000E+00  0.00000000E+00 -1.01822352E+00  0.00000000E+00
  0.00000000E+00  1.02012037E+00  0.00000000E+00  0.00000000E+00  0.00000000E+00
  7.27711226E-02  0.00000000E+00  0.00000000E+00  0.00000000E+00  0.00000000E+00
 -3.09834917E-01  0.00000000E+00  0.00000000E+00  0.00000000E+00 -6.65188251E-01
  0.00000000E+00  0.00000000E+00  0.00000000E+00  0.00000000E+00  0.00000000E+00
  1.30276360E-02  0.00000000E+00  0.00000000E+00  0.00000000E+00 -1.94215757E-01
  0.00000000E+00  0.00000000E+00  0.00000000E+00  0.00000000E+00 -1.01822352E+00
  0.00000000E+00  0.00000000E+00  1.02012037E+00  0.00000000E+00  0.00000000E+00
  0.00000000E+00  7.27711226E-02  0.00000000E+00  0.00000000E+00  0.00000000E+00
  0.00000000E+00 -3.09834917E-01  0.00000000E+00  0.00000000E+00  0.00000000E+00
 -6.65188251E-01  0.00000000E+00  0.00000000E+00  0.00000000E+00  0.00000000E+00
  0.00000000E+00  1.30276360E-02  0.00000000E+00  0.00000000E+00  0.00000000E+00
 -1.94215757E-01  0.00000000E+00  0.00000000E+00 -3.93610765E-15 -1.57290615E-14
  1.24551359E-14  0.00000000E+00  0.00000000E+00 -1.18942943E-14  0.00000000E+00
  0.00000000E+00  1.17964279E-14  1.47726304E-15  0.00000000E+00  0.00000000E+00
 -5.65147780E-01  0.00000000E+00 -1.23017609E-14  0.00000000E+00  0.00000000E+00
 -1.98431207E-15  6.48008194E-18  0.00000000E+00  0.00000000E+00  1.46273771E+00
  0.00000000E+00  2.92896249E-17 -1.20298380E-14  0.00000000E+00  0.00000000E+00
 -1.63150341E-16  2.22333819E-14  0.00000000E+00  0.00000000E+00 -1.67174062E-15
  0.00000000E+00  0.00000000E+00  0.00000000E+00  0.00000000E+00  0.00000000E+00
  0.00000000E+00  0.00000000E+00  0.00000000E+00  0.00000000E+00  0.00000000E+00
  0.00000000E+00  0.00000000E+00  0.00000000E+00 -5.65147780E-01  0.00000000E+00
  0.00000000E+00  0.00000000E+00  0.00000000E+00  0.00000000E+00  0.00000000E+00
  0.00000000E+00  0.00000000E+00  1.46273771E+00  0.00000000E+00  0.00000000E+00
  0.00000000E+00  0.00000000E+00  0.00000000E+00  0.00000000E+00  0.00000000E+00
  0.00000000E+00  0.00000000E+00  0.00000000E+00  0.00000000E+00  0.00000000E+00
  0.00000000E+00 -7.62547011E-01  0.00000000E+00  0.00000000E+00  4.19020988E-01
  0.00000000E+00  0.00000000E+00  0.00000000E+00 -4.83040940E-01  0.00000000E+00
  0.00000000E+00  0.00000000E+00  0.00000000E+00 -1.19969722E-01  0.00000000E+00
  0.00000000E+00  0.00000000E+00  1.32777581E+00  0.00000000E+00  0.00000000E+00
  0.00000000E+00  0.00000000E+00  0.00000000E+00 -3.11836468E-02  0.00000000E+00
  0.00000000E+00  0.00000000E+00  1.50699935E-01  0.00000000E+00  0.00000000E+00
  0.00000000E+00  0.00000000E+00 -7.62547011E-01  0.00000000E+00  0.00000000E+00
  4.19020988E-01  0.00000000E+00  0.00000000E+00  0.00000000E+00 -4.83040940E-01
  0.00000000E+00  0.00000000E+00  0.00000000E+00  0.00000000E+00 -1.19969722E-01
  0.00000000E+00  0.00000000E+00  0.00000000E+00  1.32777581E+00  0.00000000E+00
  0.00000000E+00  0.00000000E+00  0.00000000E+00  0.00000000E+00 -3.11836468E-02
  0.00000000E+00  0.00000000E+00  0.00000000E+00  1.50699935E-01  0.00000000E+00
  0.00000000E+00 -3.35721855E-01 -1.19304502E+00  7.21116637E+00  0.00000000E+00
  0.00000000E+00 -7.24025415E-01  0.00000000E+00  0.00000000E+00 -2.60812042E+00
 -3.35477576E-01  0.00000000E+00  0.00000000E+00 -1.27982256E-15  0.00000000E+00
 -3.01582863E-01  0.00000000E+00  0.00000000E+00  1.35979538E-01  1.66820075E+00
  0.00000000E+00  0.00000000E+00 -5.60308164E-15  0.00000000E+00  1.41255516E-01
 -9.61663200E-01  0.00000000E+00  0.00000000E+00  1.85394930E-03 -6.11089726E+00
  0.00000000E+00  0.00000000E+00 -5.59651026E-02  4.92219138E-02  5.04150042E-01
  2.19970670E+00  0.00000000E+00  0.00000000E+00 -1.34962882E+00  0.00000000E+00
  0.00000000E+00 -8.87618234E-01 -1.03370596E+00  0.00000000E+00  0.00000000E+00
 -1.85684147E-14  0.00000000E+00 -1.30605342E-02  0.00000000E+00  0.00000000E+00
  5.51919929E-02  1.90263206E+00  0.00000000E+00  0.00000000E+00  1.26357477E-14
  0.00000000E+00 -1.00338107E-01 -1.65799738E+00  0.00000000E+00  0.00000000E+00
 -2.47092346E-02 -1.92919589E+00  0.00000000E+00  0.00000000E+00  7.62625154E-01
  0.00000000E+00  0.00000000E+00  0.00000000E+00 -8.71886364E-01  0.00000000E+00
  0.00000000E+00  4.02880326E-02  0.00000000E+00  0.00000000E+00  0.00000000E+00
 -8.16974465E-01  0.00000000E+00  0.00000000E+00  0.00000000E+00  0.00000000E+00
 -4.58257523E-03  0.00000000E+00  0.00000000E+00  0.00000000E+00  1.33680399E+00
  0.00000000E+00  0.00000000E+00  0.00000000E+00  0.00000000E+00  0.00000000E+00
 -4.68102483E-02  0.00000000E+00  0.00000000E+00  0.00000000E+00  1.45897646E+00
  0.00000000E+00  0.00000000E+00  0.00000000E+00  0.00000000E+00  0.00000000E+00
  0.00000000E+00 -8.71886364E-01  0.00000000E+00  0.00000000E+00  4.02880326E-02
  0.00000000E+00  0.00000000E+00  0.00000000E+00 -8.16974465E-01  0.00000000E+00
  0.00000000E+00  0.00000000E+00  0.00000000E+00 -4.58257523E-03  0.00000000E+00
  0.00000000E+00  0.00000000E+00  1.33680399E+00  0.00000000E+00  0.00000000E+00
  0.00000000E+00  0.00000000E+00  0.00000000E+00 -4.68102483E-02  0.00000000E+00
  0.00000000E+00  0.00000000E+00  1.45897646E+00  0.00000000E+00  0.00000000E+00
  0.00000000E+00  0.00000000E+00  0.00000000E+00  0.00000000E+00  0.00000000E+00
  0.00000000E+00  0.00000000E+00  0.00000000E+00  0.00000000E+00  0.00000000E+00
  0.00000000E+00  0.00000000E+00  2.04940974E+00  0.00000000E+00  0.00000000E+00
  0.00000000E+00  0.00000000E+00  0.00000000E+00  0.00000000E+00  0.00000000E+00
  0.00000000E+00 -1.54268296E+00  0.00000000E+00  0.00000000E+00  0.00000000E+00
  0.00000000E+00  0.00000000E+00  0.00000000E+00  0.00000000E+00  0.00000000E+00
  0.00000000E+00 -8.31607159E-13  2.66199285E-13 -3.33221005E-11  0.00000000E+00
  0.00000000E+00 -2.79758679E-12  0.00000000E+00  0.00000000E+00  1.56917775E-11
  2.05181730E-11  0.00000000E+00  0.00000000E+00  2.04940974E+00  0.00000000E+00
 -3.87243546E-12  0.00000000E+00  0.00000000E+00  2.08166705E-14 -1.52510488E-11
  0.00000000E+00  0.00000000E+00 -1.54268296E+00  0.00000000E+00  2.71793199E-12
 -1.31113935E-11  0.00000000E+00  0.00000000E+00 -4.49432136E-13  4.58947063E-11
  0.00000000E+00  0.00000000E+00  8.28951843E-12 -7.44032951E-02  2.37209852E-02
 -2.99461015E+00  0.00000000E+00  0.00000000E+00 -2.48811977E-01  0.00000000E+00
  0.00000000E+00  1.40992242E+00  1.83923456E+00  0.00000000E+00  0.00000000E+00
 -2.28835921E-11  0.00000000E+00 -3.47117869E-01  0.00000000E+00  0.00000000E+00
  1.59810047E-03 -1.36920855E+00  0.00000000E+00  0.00000000E+00  1.72259140E-11
  0.00000000E+00  2.43722687E-01 -1.17264303E+00  0.00000000E+00  0.00000000E+00
 -4.02275397E-02  4.12118028E+00  0.00000000E+00  0.00000000E+00  7.41854280E-01
  0.00000000E+00  0.00000000E+00  0.00000000E+00 -9.82327735E-01  0.00000000E+00
  0.00000000E+00  1.34427436E-01  0.00000000E+00  0.00000000E+00  0.00000000E+00
  2.08075969E+00  0.00000000E+00  0.00000000E+00  0.00000000E+00  0.00000000E+00
 -2.91732465E-02  0.00000000E+00  0.00000000E+00  0.00000000E+00 -8.73750841E-01
  0.00000000E+00  0.00000000E+00  0.00000000E+00  0.00000000E+00  0.00000000E+00
 -3.40556166E-02  0.00000000E+00  0.00000000E+00  0.00000000E+00  1.43390649E+00
  0.00000000E+00  0.00000000E+00  0.00000000E+00  0.00000000E+00  0.00000000E+00
  0.00000000E+00 -9.82327735E-01  0.00000000E+00  0.00000000E+00  1.34427436E-01
  0.00000000E+00  0.00000000E+00  0.00000000E+00  2.08075969E+00  0.00000000E+00
  0.00000000E+00  0.00000000E+00  0.00000000E+00 -2.91732465E-02  0.00000000E+00
  0.00000000E+00  0.00000000E+00 -8.73750841E-01  0.00000000E+00  0.00000000E+00
  0.00000000E+00  0.00000000E+00  0.00000000E+00 -3.40556166E-02  0.00000000E+00
  0.00000000E+00  0.00000000E+00  1.43390649E+00  0.00000000E+00  1.26713908E+00
  2.85436501E+00 -2.48523046E+00  0.00000000E+00  0.00000000E+00 -2.02772758E+00
  0.00000000E+00  0.00000000E+00  1.19173981E+00  2.02322504E+00  0.00000000E+00
  0.00000000E+00 -6.46632701E-15  0.00000000E+00  2.76271190E-01  0.00000000E+00
  0.00000000E+00 -1.82550336E-01 -1.10934599E+00  0.00000000E+00  0.00000000E+00
  5.37046841E-15  0.00000000E+00 -1.27725777E+00 -1.62095186E+00  0.00000000E+00
  0.00000000E+00 -5.75560223E-02  1.32527337E+00  0.00000000E+00  0.00000000E+00
 -7.83015640E-01 -3.09494633E+00 -6.30677683E+00  1.90073098E+00  0.00000000E+00
  0.00000000E+00  4.25722167E+00  0.00000000E+00  0.00000000E+00 -5.79321566E-01
 -7.48728961E-01  0.00000000E+00  0.00000000E+00 -4.30443490E-15  0.00000000E+00
 -4.13845506E-01  0.00000000E+00  0.00000000E+00  9.75547003E-02 -6.65420093E-01
  0.00000000E+00  0.00000000E+00  4.67100801E-15  0.00000000E+00 -9.69827028E-01
  7.29763375E+00  0.00000000E+00  0.00000000E+00  1.09833782E-01 -2.58178680E-01
  0.00000000E+00  0.00000000E+00  1.93347044E+00  2.30704927E-01  3.12640045E-01
  3.23215410E-01  0.00000000E+00  0.00000000E+00  2.50644368E-01  0.00000000E+00
  0.00000000E+00 -2.73402030E-01 -2.78898394E-01  0.00000000E+00  0.00000000E+00
  1.50644005E-15  0.00000000E+00  1.30953612E-01  0.00000000E+00  0.00000000E+00
  4.08387417E-03 -7.18044462E-03  0.00000000E+00  0.00000000E+00 -1.30479553E-15
  0.00000000E+00  1.01140623E-01  1.87315766E-01  0.00000000E+00  0.00000000E+00
  1.19975776E+00 -8.30063674E-01  0.00000000E+00  0.00000000E+00 -8.35804392E-01
  0.00000000E+00  0.00000000E+00  0.00000000E+00  2.68894912E-01  0.00000000E+00
  0.00000000E+00  6.50237810E-02  0.00000000E+00  0.00000000E+00  0.00000000E+00
  2.82830220E-01  0.00000000E+00  0.00000000E+00  0.00000000E+00  0.00000000E+00
 -2.16945587E-02  0.00000000E+00  0.00000000E+00  0.00000000E+00 -4.94433374E-01
  0.00000000E+00  0.00000000E+00  0.00000000E+00  0.00000000E+00  0.00000000E+00
  1.19021153E+00  0.00000000E+00  0.00000000E+00  0.00000000E+00 -8.47242110E-01
  0.00000000E+00  0.00000000E+00  0.00000000E+00  0.00000000E+00  0.00000000E+00
  0.00000000E+00  2.68894912E-01  0.00000000E+00  0.00000000E+00  6.50237810E-02
  0.00000000E+00  0.00000000E+00  0.00000000E+00  2.82830220E-01  0.00000000E+00
  0.00000000E+00  0.00000000E+00  0.00000000E+00 -2.16945587E-02  0.00000000E+00
  0.00000000E+00  0.00000000E+00 -4.94433374E-01  0.00000000E+00  0.00000000E+00
  0.00000000E+00  0.00000000E+00  0.00000000E+00  1.19021153E+00  0.00000000E+00
  0.00000000E+00  0.00000000E+00 -8.47242110E-01  0.00000000E+00
Total SCF Density                          R   N=         528
  1.95166390E+00 -4.73964095E-02  2.77937984E-01 -3.17791147E-02  5.87588767E-02
  2.22172138E-02  0.00000000E+00  0.00000000E+00  0.00000000E+00  6.95483136E-04
  0.00000000E+00  0.00000000E+00  0.00000000E+00  0.00000000E+00  6.95483136E-04
  5.99199561E-02 -2.49718766E-01 -5.47963429E-02  0.00000000E+00  0.00000000E+00
  2.25674094E-01  0.00000000E+00  0.00000000E+00  0.00000000E+00 -2.48551818E-04
  0.00000000E+00  0.00000000E+00  9.48892750E-05  0.00000000E+00  0.00000000E+00
  0.00000000E+00  0.00000000E+00 -2.48551818E-04  0.00000000E+00  0.00000000E+00
  9.48892750E-05 -1.68664007E-03  1.27394713E-02  7.02036066E-04  0.00000000E+00
  0.00000000E+00 -1.13393476E-02  0.00000000E+00  0.00000000E+00  1.10411457E-03
 -9.92079482E-03  2.77548659E-02  3.51734239E-03  0.00000000E+00  0.00000000E+00
 -2.48952083E-02  0.00000000E+00  0.00000000E+00  1.90456147E-03  3.66833780E-03
  0.00000000E+00  0.00000000E+00  0.00000000E+00 -7.19086061E-04  0.00000000E+00
  0.00000000E+00  2.61176621E-04  0.00000000E+00  0.00000000E+00  0.00000000E+00
  8.67807074E-04  0.00000000E+00  0.00000000E+00  0.00000000E+00  0.00000000E+00
 -7.19086061E-04  0.00000000E+00  0.00000000E+00  2.61176621E-04  0.00000000E+00
  0.00000000E+00  0.00000000E+00  8.67807074E-04  2.58311246E-14  9.92872831E-14
  4.96164443E-14  0.00000000E+00  0.00000000E+00 -5.64665784E-14  0.00000000E+00
  0.00000000E+00 -1.29188505E-14 -9.55438600E-15  0.00000000E+00  0.00000000E+00
  2.19660162E-05  0.00000000E+00  0.00000000E+00  0.00000000E+00  0.00000000E+00
  0.00000000E+00  0.00000000E+00  0.00000000E+00  0.00000000E+00  0.00000000E+00
  0.00000000E+00  0.00000000E+00  0.00000000E+00  0.00000000E+00  2.19660162E-05
  1.71299893E-03 -3.11382629E-03 -2.26982616E-03  0.00000000E+00  0.00000000E+00
  3.07022171E-03  0.00000000E+00  0.00000000E+00  1.94726851E-04  1.32135670E-04
  0.00000000E+00  0.00000000E+00 -7.92589548E-15  0.00000000E+00  3.21525281E-04
  0.00000000E+00  0.00000000E+00  0.00000000E+00  7.53199740E-05  0.00000000E+00
  0.00000000E+00 -2.87651925E-05  0.00000000E+00  0.00000000E+00  0.00000000E+00
 -7.98822126E-05  0.00000000E+00  0.00000000E+00  0.00000000E+00  0.00000000E+00
  8.74587738E-06  0.00000000E+00  0.00000000E+00  0.00000000E+00  0.00000000E+00
  7.53199740E-05  0.00000000E+00  0.00000000E+00 -2.87651925E-05  0.00000000E+00
  0.00000000E+00  0.00000000E+00 -7.98822126E-05  0.00000000E+00  0.00000000E+00
  0.00000000E+00  0.00000000E+00  8.74587738E-06  2.77430540E-03 -6.02764740E-03
 -1.02872401E-03  0.00000000E+00  0.00000000E+00  5.47860516E-03  0.00000000E+00
  0.00000000E+00 -3.64328228E-04 -7.28314104E-04  0.00000000E+00  0.00000000E+00
  2.89787843E-15  0.00000000E+00  1.58411468E-05  0.00000000E+00  0.00000000E+00
  1.52676310E-04 -1.06166059E-02  3.54545832E-02  9.05882403E-03  0.00000000E+00
  0.00000000E+00 -3.22779503E-02  0.00000000E+00  0.00000000E+00  1.32446669E-03
  3.09987679E-03  0.00000000E+00  0.00000000E+00  7.26534931E-15  0.00000000E+00
 -6.69373492E-04  0.00000000E+00  0.00000000E+00 -7.31305407E-04  4.91245446E-03
  0.00000000E+00  0.00000000E+00  0.00000000E+00  4.36109657E-04  0.00000000E+00
  0.00000000E+00 -1.64243755E-04  0.00000000E+00  0.00000000E+00  0.00000000E+00
 -5.77350346E-04  0.00000000E+00  0.00000000E+00  0.00000000E+00  0.00000000E+00
  5.07138259E-05  0.00000000E+00  0.00000000E+00  0.00000000E+00  4.07210551E-04
  0.00000000E+00  0.00000000E+00  0.00000000E+00  0.00000000E+00  4.36109657E-04
  0.00000000E+00  0.00000000E+00 -1.64243755E-04  0.00000000E+00  0.00000000E+00
  0.00000000E+00 -5.77350346E-04  0.00000000E+00  0.00000000E+00  0.00000000E+00
  0.00000000E+00  5.07138259E-05  0.00000000E+00  0.00000000E+00  0.00000000E+00